(written by Ganesh A)

2272	atoms
2	atom types
0	33.4521	xlo xhi
-189.421	189.421	ylo yhi
-100	100	zlo zhi


Masses

1	63.546
2	12

Atoms

1 2 2 0 2.091 -95.361 -27.000 0 0 0
2 2 2 0 3.485 -95.361 -27.000 0 0 0
3 2 2 0 6.272 -95.361 -27.000 0 0 0
4 2 2 0 7.666 -95.361 -27.000 0 0 0
5 2 2 0 10.454 -95.361 -27.000 0 0 0
6 2 2 0 11.848 -95.361 -27.000 0 0 0
7 2 2 0 14.635 -95.361 -27.000 0 0 0
8 2 2 0 16.029 -95.361 -27.000 0 0 0
9 2 2 0 18.817 -95.361 -27.000 0 0 0
10 2 2 0 20.211 -95.361 -27.000 0 0 0
11 2 2 0 22.998 -95.361 -27.000 0 0 0
12 2 2 0 24.392 -95.361 -27.000 0 0 0
13 2 2 0 27.180 -95.361 -27.000 0 0 0
14 2 2 0 28.574 -95.361 -27.000 0 0 0
15 2 2 0 31.361 -95.361 -27.000 0 0 0
16 2 2 0 32.755 -95.361 -27.000 0 0 0
17 2 2 0 0.000 -94.154 -27.000 0 0 0
18 2 2 0 1.394 -94.154 -27.000 0 0 0
19 2 2 0 2.091 -92.947 -27.000 0 0 0
20 2 2 0 3.485 -92.947 -27.000 0 0 0
21 2 2 0 4.182 -94.154 -27.000 0 0 0
22 2 2 0 5.575 -94.154 -27.000 0 0 0
23 2 2 0 6.272 -92.947 -27.000 0 0 0
24 2 2 0 7.666 -92.947 -27.000 0 0 0
25 2 2 0 8.363 -94.154 -27.000 0 0 0
26 2 2 0 9.757 -94.154 -27.000 0 0 0
27 2 2 0 10.454 -92.947 -27.000 0 0 0
28 2 2 0 11.848 -92.947 -27.000 0 0 0
29 2 2 0 12.545 -94.154 -27.000 0 0 0
30 2 2 0 13.938 -94.154 -27.000 0 0 0
31 2 2 0 14.635 -92.947 -27.000 0 0 0
32 2 2 0 16.029 -92.947 -27.000 0 0 0
33 2 2 0 16.726 -94.154 -27.000 0 0 0
34 2 2 0 18.120 -94.154 -27.000 0 0 0
35 2 2 0 18.817 -92.947 -27.000 0 0 0
36 2 2 0 20.211 -92.947 -27.000 0 0 0
37 2 2 0 20.908 -94.154 -27.000 0 0 0
38 2 2 0 22.301 -94.154 -27.000 0 0 0
39 2 2 0 22.998 -92.947 -27.000 0 0 0
40 2 2 0 24.392 -92.947 -27.000 0 0 0
41 2 2 0 25.089 -94.154 -27.000 0 0 0
42 2 2 0 26.483 -94.154 -27.000 0 0 0
43 2 2 0 27.180 -92.947 -27.000 0 0 0
44 2 2 0 28.574 -92.947 -27.000 0 0 0
45 2 2 0 29.271 -94.154 -27.000 0 0 0
46 2 2 0 30.664 -94.154 -27.000 0 0 0
47 2 2 0 31.361 -92.947 -27.000 0 0 0
48 2 2 0 32.755 -92.947 -27.000 0 0 0
49 2 2 0 0.000 -91.739 -27.000 0 0 0
50 2 2 0 1.394 -91.739 -27.000 0 0 0
51 2 2 0 2.091 -90.532 -27.000 0 0 0
52 2 2 0 3.485 -90.532 -27.000 0 0 0
53 2 2 0 4.182 -91.739 -27.000 0 0 0
54 2 2 0 5.575 -91.739 -27.000 0 0 0
55 2 2 0 6.272 -90.532 -27.000 0 0 0
56 2 2 0 7.666 -90.532 -27.000 0 0 0
57 2 2 0 8.363 -91.739 -27.000 0 0 0
58 2 2 0 9.757 -91.739 -27.000 0 0 0
59 2 2 0 10.454 -90.532 -27.000 0 0 0
60 2 2 0 11.848 -90.532 -27.000 0 0 0
61 2 2 0 12.545 -91.739 -27.000 0 0 0
62 2 2 0 13.938 -91.739 -27.000 0 0 0
63 2 2 0 14.635 -90.532 -27.000 0 0 0
64 2 2 0 16.029 -90.532 -27.000 0 0 0
65 2 2 0 16.726 -91.739 -27.000 0 0 0
66 2 2 0 18.120 -91.739 -27.000 0 0 0
67 2 2 0 18.817 -90.532 -27.000 0 0 0
68 2 2 0 20.211 -90.532 -27.000 0 0 0
69 2 2 0 20.908 -91.739 -27.000 0 0 0
70 2 2 0 22.301 -91.739 -27.000 0 0 0
71 2 2 0 22.998 -90.532 -27.000 0 0 0
72 2 2 0 24.392 -90.532 -27.000 0 0 0
73 2 2 0 25.089 -91.739 -27.000 0 0 0
74 2 2 0 26.483 -91.739 -27.000 0 0 0
75 2 2 0 27.180 -90.532 -27.000 0 0 0
76 2 2 0 28.574 -90.532 -27.000 0 0 0
77 2 2 0 29.271 -91.739 -27.000 0 0 0
78 2 2 0 30.664 -91.739 -27.000 0 0 0
79 2 2 0 31.361 -90.532 -27.000 0 0 0
80 2 2 0 32.755 -90.532 -27.000 0 0 0
81 2 2 0 0.000 -89.325 -27.000 0 0 0
82 2 2 0 1.394 -89.325 -27.000 0 0 0
83 2 2 0 2.091 -88.118 -27.000 0 0 0
84 2 2 0 3.485 -88.118 -27.000 0 0 0
85 2 2 0 4.182 -89.325 -27.000 0 0 0
86 2 2 0 5.575 -89.325 -27.000 0 0 0
87 2 2 0 6.272 -88.118 -27.000 0 0 0
88 2 2 0 7.666 -88.118 -27.000 0 0 0
89 2 2 0 8.363 -89.325 -27.000 0 0 0
90 2 2 0 9.757 -89.325 -27.000 0 0 0
91 2 2 0 10.454 -88.118 -27.000 0 0 0
92 2 2 0 11.848 -88.118 -27.000 0 0 0
93 2 2 0 12.545 -89.325 -27.000 0 0 0
94 2 2 0 13.938 -89.325 -27.000 0 0 0
95 2 2 0 14.635 -88.118 -27.000 0 0 0
96 2 2 0 16.029 -88.118 -27.000 0 0 0
97 2 2 0 16.726 -89.325 -27.000 0 0 0
98 2 2 0 18.120 -89.325 -27.000 0 0 0
99 2 2 0 18.817 -88.118 -27.000 0 0 0
100 2 2 0 20.211 -88.118 -27.000 0 0 0
101 2 2 0 20.908 -89.325 -27.000 0 0 0
102 2 2 0 22.301 -89.325 -27.000 0 0 0
103 2 2 0 22.998 -88.118 -27.000 0 0 0
104 2 2 0 24.392 -88.118 -27.000 0 0 0
105 2 2 0 25.089 -89.325 -27.000 0 0 0
106 2 2 0 26.483 -89.325 -27.000 0 0 0
107 2 2 0 27.180 -88.118 -27.000 0 0 0
108 2 2 0 28.574 -88.118 -27.000 0 0 0
109 2 2 0 29.271 -89.325 -27.000 0 0 0
110 2 2 0 30.664 -89.325 -27.000 0 0 0
111 2 2 0 31.361 -88.118 -27.000 0 0 0
112 2 2 0 32.755 -88.118 -27.000 0 0 0
113 2 2 0 0.000 -86.911 -27.000 0 0 0
114 2 2 0 1.394 -86.911 -27.000 0 0 0
115 2 2 0 2.091 -85.704 -27.000 0 0 0
116 2 2 0 3.485 -85.704 -27.000 0 0 0
117 2 2 0 4.182 -86.911 -27.000 0 0 0
118 2 2 0 5.575 -86.911 -27.000 0 0 0
119 2 2 0 6.272 -85.704 -27.000 0 0 0
120 2 2 0 7.666 -85.704 -27.000 0 0 0
121 2 2 0 8.363 -86.911 -27.000 0 0 0
122 2 2 0 9.757 -86.911 -27.000 0 0 0
123 2 2 0 10.454 -85.704 -27.000 0 0 0
124 2 2 0 11.848 -85.704 -27.000 0 0 0
125 2 2 0 12.545 -86.911 -27.000 0 0 0
126 2 2 0 13.938 -86.911 -27.000 0 0 0
127 2 2 0 14.635 -85.704 -27.000 0 0 0
128 2 2 0 16.029 -85.704 -27.000 0 0 0
129 2 2 0 16.726 -86.911 -27.000 0 0 0
130 2 2 0 18.120 -86.911 -27.000 0 0 0
131 2 2 0 18.817 -85.704 -27.000 0 0 0
132 2 2 0 20.211 -85.704 -27.000 0 0 0
133 2 2 0 20.908 -86.911 -27.000 0 0 0
134 2 2 0 22.301 -86.911 -27.000 0 0 0
135 2 2 0 22.998 -85.704 -27.000 0 0 0
136 2 2 0 24.392 -85.704 -27.000 0 0 0
137 2 2 0 25.089 -86.911 -27.000 0 0 0
138 2 2 0 26.483 -86.911 -27.000 0 0 0
139 2 2 0 27.180 -85.704 -27.000 0 0 0
140 2 2 0 28.574 -85.704 -27.000 0 0 0
141 2 2 0 29.271 -86.911 -27.000 0 0 0
142 2 2 0 30.664 -86.911 -27.000 0 0 0
143 2 2 0 31.361 -85.704 -27.000 0 0 0
144 2 2 0 32.755 -85.704 -27.000 0 0 0
145 2 2 0 0.000 -84.497 -27.000 0 0 0
146 2 2 0 1.394 -84.497 -27.000 0 0 0
147 2 2 0 2.091 -83.290 -27.000 0 0 0
148 2 2 0 3.485 -83.290 -27.000 0 0 0
149 2 2 0 4.182 -84.497 -27.000 0 0 0
150 2 2 0 5.575 -84.497 -27.000 0 0 0
151 2 2 0 6.272 -83.290 -27.000 0 0 0
152 2 2 0 7.666 -83.290 -27.000 0 0 0
153 2 2 0 8.363 -84.497 -27.000 0 0 0
154 2 2 0 9.757 -84.497 -27.000 0 0 0
155 2 2 0 10.454 -83.290 -27.000 0 0 0
156 2 2 0 11.848 -83.290 -27.000 0 0 0
157 2 2 0 12.545 -84.497 -27.000 0 0 0
158 2 2 0 13.938 -84.497 -27.000 0 0 0
159 2 2 0 14.635 -83.290 -27.000 0 0 0
160 2 2 0 16.029 -83.290 -27.000 0 0 0
161 2 2 0 16.726 -84.497 -27.000 0 0 0
162 2 2 0 18.120 -84.497 -27.000 0 0 0
163 2 2 0 18.817 -83.290 -27.000 0 0 0
164 2 2 0 20.211 -83.290 -27.000 0 0 0
165 2 2 0 20.908 -84.497 -27.000 0 0 0
166 2 2 0 22.301 -84.497 -27.000 0 0 0
167 2 2 0 22.998 -83.290 -27.000 0 0 0
168 2 2 0 24.392 -83.290 -27.000 0 0 0
169 2 2 0 25.089 -84.497 -27.000 0 0 0
170 2 2 0 26.483 -84.497 -27.000 0 0 0
171 2 2 0 27.180 -83.290 -27.000 0 0 0
172 2 2 0 28.574 -83.290 -27.000 0 0 0
173 2 2 0 29.271 -84.497 -27.000 0 0 0
174 2 2 0 30.664 -84.497 -27.000 0 0 0
175 2 2 0 31.361 -83.290 -27.000 0 0 0
176 2 2 0 32.755 -83.290 -27.000 0 0 0
177 2 2 0 0.000 -82.083 -27.000 0 0 0
178 2 2 0 1.394 -82.083 -27.000 0 0 0
179 2 2 0 2.091 -80.876 -27.000 0 0 0
180 2 2 0 3.485 -80.876 -27.000 0 0 0
181 2 2 0 4.182 -82.083 -27.000 0 0 0
182 2 2 0 5.575 -82.083 -27.000 0 0 0
183 2 2 0 6.272 -80.876 -27.000 0 0 0
184 2 2 0 7.666 -80.876 -27.000 0 0 0
185 2 2 0 8.363 -82.083 -27.000 0 0 0
186 2 2 0 9.757 -82.083 -27.000 0 0 0
187 2 2 0 10.454 -80.876 -27.000 0 0 0
188 2 2 0 11.848 -80.876 -27.000 0 0 0
189 2 2 0 12.545 -82.083 -27.000 0 0 0
190 2 2 0 13.938 -82.083 -27.000 0 0 0
191 2 2 0 14.635 -80.876 -27.000 0 0 0
192 2 2 0 16.029 -80.876 -27.000 0 0 0
193 2 2 0 16.726 -82.083 -27.000 0 0 0
194 2 2 0 18.120 -82.083 -27.000 0 0 0
195 2 2 0 18.817 -80.876 -27.000 0 0 0
196 2 2 0 20.211 -80.876 -27.000 0 0 0
197 2 2 0 20.908 -82.083 -27.000 0 0 0
198 2 2 0 22.301 -82.083 -27.000 0 0 0
199 2 2 0 22.998 -80.876 -27.000 0 0 0
200 2 2 0 24.392 -80.876 -27.000 0 0 0
201 2 2 0 25.089 -82.083 -27.000 0 0 0
202 2 2 0 26.483 -82.083 -27.000 0 0 0
203 2 2 0 27.180 -80.876 -27.000 0 0 0
204 2 2 0 28.574 -80.876 -27.000 0 0 0
205 2 2 0 29.271 -82.083 -27.000 0 0 0
206 2 2 0 30.664 -82.083 -27.000 0 0 0
207 2 2 0 31.361 -80.876 -27.000 0 0 0
208 2 2 0 32.755 -80.876 -27.000 0 0 0
209 2 2 0 0.000 -79.669 -27.000 0 0 0
210 2 2 0 1.394 -79.669 -27.000 0 0 0
211 2 2 0 2.091 -78.461 -27.000 0 0 0
212 2 2 0 3.485 -78.461 -27.000 0 0 0
213 2 2 0 4.182 -79.669 -27.000 0 0 0
214 2 2 0 5.575 -79.669 -27.000 0 0 0
215 2 2 0 6.272 -78.461 -27.000 0 0 0
216 2 2 0 7.666 -78.461 -27.000 0 0 0
217 2 2 0 8.363 -79.669 -27.000 0 0 0
218 2 2 0 9.757 -79.669 -27.000 0 0 0
219 2 2 0 10.454 -78.461 -27.000 0 0 0
220 2 2 0 11.848 -78.461 -27.000 0 0 0
221 2 2 0 12.545 -79.669 -27.000 0 0 0
222 2 2 0 13.938 -79.669 -27.000 0 0 0
223 2 2 0 14.635 -78.461 -27.000 0 0 0
224 2 2 0 16.029 -78.461 -27.000 0 0 0
225 2 2 0 16.726 -79.669 -27.000 0 0 0
226 2 2 0 18.120 -79.669 -27.000 0 0 0
227 2 2 0 18.817 -78.461 -27.000 0 0 0
228 2 2 0 20.211 -78.461 -27.000 0 0 0
229 2 2 0 20.908 -79.669 -27.000 0 0 0
230 2 2 0 22.301 -79.669 -27.000 0 0 0
231 2 2 0 22.998 -78.461 -27.000 0 0 0
232 2 2 0 24.392 -78.461 -27.000 0 0 0
233 2 2 0 25.089 -79.669 -27.000 0 0 0
234 2 2 0 26.483 -79.669 -27.000 0 0 0
235 2 2 0 27.180 -78.461 -27.000 0 0 0
236 2 2 0 28.574 -78.461 -27.000 0 0 0
237 2 2 0 29.271 -79.669 -27.000 0 0 0
238 2 2 0 30.664 -79.669 -27.000 0 0 0
239 2 2 0 31.361 -78.461 -27.000 0 0 0
240 2 2 0 32.755 -78.461 -27.000 0 0 0
241 2 2 0 0.000 -77.254 -27.000 0 0 0
242 2 2 0 1.394 -77.254 -27.000 0 0 0
243 2 2 0 2.091 -76.047 -27.000 0 0 0
244 2 2 0 3.485 -76.047 -27.000 0 0 0
245 2 2 0 4.182 -77.254 -27.000 0 0 0
246 2 2 0 5.575 -77.254 -27.000 0 0 0
247 2 2 0 6.272 -76.047 -27.000 0 0 0
248 2 2 0 7.666 -76.047 -27.000 0 0 0
249 2 2 0 8.363 -77.254 -27.000 0 0 0
250 2 2 0 9.757 -77.254 -27.000 0 0 0
251 2 2 0 10.454 -76.047 -27.000 0 0 0
252 2 2 0 11.848 -76.047 -27.000 0 0 0
253 2 2 0 12.545 -77.254 -27.000 0 0 0
254 2 2 0 13.938 -77.254 -27.000 0 0 0
255 2 2 0 14.635 -76.047 -27.000 0 0 0
256 2 2 0 16.029 -76.047 -27.000 0 0 0
257 2 2 0 16.726 -77.254 -27.000 0 0 0
258 2 2 0 18.120 -77.254 -27.000 0 0 0
259 2 2 0 18.817 -76.047 -27.000 0 0 0
260 2 2 0 20.211 -76.047 -27.000 0 0 0
261 2 2 0 20.908 -77.254 -27.000 0 0 0
262 2 2 0 22.301 -77.254 -27.000 0 0 0
263 2 2 0 22.998 -76.047 -27.000 0 0 0
264 2 2 0 24.392 -76.047 -27.000 0 0 0
265 2 2 0 25.089 -77.254 -27.000 0 0 0
266 2 2 0 26.483 -77.254 -27.000 0 0 0
267 2 2 0 27.180 -76.047 -27.000 0 0 0
268 2 2 0 28.574 -76.047 -27.000 0 0 0
269 2 2 0 29.271 -77.254 -27.000 0 0 0
270 2 2 0 30.664 -77.254 -27.000 0 0 0
271 2 2 0 31.361 -76.047 -27.000 0 0 0
272 2 2 0 32.755 -76.047 -27.000 0 0 0
273 2 2 0 0.000 -74.840 -27.000 0 0 0
274 2 2 0 1.394 -74.840 -27.000 0 0 0
275 2 2 0 2.091 -73.633 -27.000 0 0 0
276 2 2 0 3.485 -73.633 -27.000 0 0 0
277 2 2 0 4.182 -74.840 -27.000 0 0 0
278 2 2 0 5.575 -74.840 -27.000 0 0 0
279 2 2 0 6.272 -73.633 -27.000 0 0 0
280 2 2 0 7.666 -73.633 -27.000 0 0 0
281 2 2 0 8.363 -74.840 -27.000 0 0 0
282 2 2 0 9.757 -74.840 -27.000 0 0 0
283 2 2 0 10.454 -73.633 -27.000 0 0 0
284 2 2 0 11.848 -73.633 -27.000 0 0 0
285 2 2 0 12.545 -74.840 -27.000 0 0 0
286 2 2 0 13.938 -74.840 -27.000 0 0 0
287 2 2 0 14.635 -73.633 -27.000 0 0 0
288 2 2 0 16.029 -73.633 -27.000 0 0 0
289 2 2 0 16.726 -74.840 -27.000 0 0 0
290 2 2 0 18.120 -74.840 -27.000 0 0 0
291 2 2 0 18.817 -73.633 -27.000 0 0 0
292 2 2 0 20.211 -73.633 -27.000 0 0 0
293 2 2 0 20.908 -74.840 -27.000 0 0 0
294 2 2 0 22.301 -74.840 -27.000 0 0 0
295 2 2 0 22.998 -73.633 -27.000 0 0 0
296 2 2 0 24.392 -73.633 -27.000 0 0 0
297 2 2 0 25.089 -74.840 -27.000 0 0 0
298 2 2 0 26.483 -74.840 -27.000 0 0 0
299 2 2 0 27.180 -73.633 -27.000 0 0 0
300 2 2 0 28.574 -73.633 -27.000 0 0 0
301 2 2 0 29.271 -74.840 -27.000 0 0 0
302 2 2 0 30.664 -74.840 -27.000 0 0 0
303 2 2 0 31.361 -73.633 -27.000 0 0 0
304 2 2 0 32.755 -73.633 -27.000 0 0 0
305 2 2 0 0.000 -72.426 -27.000 0 0 0
306 2 2 0 1.394 -72.426 -27.000 0 0 0
307 2 2 0 2.091 -71.219 -27.000 0 0 0
308 2 2 0 3.485 -71.219 -27.000 0 0 0
309 2 2 0 4.182 -72.426 -27.000 0 0 0
310 2 2 0 5.575 -72.426 -27.000 0 0 0
311 2 2 0 6.272 -71.219 -27.000 0 0 0
312 2 2 0 7.666 -71.219 -27.000 0 0 0
313 2 2 0 8.363 -72.426 -27.000 0 0 0
314 2 2 0 9.757 -72.426 -27.000 0 0 0
315 2 2 0 10.454 -71.219 -27.000 0 0 0
316 2 2 0 11.848 -71.219 -27.000 0 0 0
317 2 2 0 12.545 -72.426 -27.000 0 0 0
318 2 2 0 13.938 -72.426 -27.000 0 0 0
319 2 2 0 14.635 -71.219 -27.000 0 0 0
320 2 2 0 16.029 -71.219 -27.000 0 0 0
321 2 2 0 16.726 -72.426 -27.000 0 0 0
322 2 2 0 18.120 -72.426 -27.000 0 0 0
323 2 2 0 18.817 -71.219 -27.000 0 0 0
324 2 2 0 20.211 -71.219 -27.000 0 0 0
325 2 2 0 20.908 -72.426 -27.000 0 0 0
326 2 2 0 22.301 -72.426 -27.000 0 0 0
327 2 2 0 22.998 -71.219 -27.000 0 0 0
328 2 2 0 24.392 -71.219 -27.000 0 0 0
329 2 2 0 25.089 -72.426 -27.000 0 0 0
330 2 2 0 26.483 -72.426 -27.000 0 0 0
331 2 2 0 27.180 -71.219 -27.000 0 0 0
332 2 2 0 28.574 -71.219 -27.000 0 0 0
333 2 2 0 29.271 -72.426 -27.000 0 0 0
334 2 2 0 30.664 -72.426 -27.000 0 0 0
335 2 2 0 31.361 -71.219 -27.000 0 0 0
336 2 2 0 32.755 -71.219 -27.000 0 0 0
337 2 2 0 0.000 -70.012 -27.000 0 0 0
338 2 2 0 1.394 -70.012 -27.000 0 0 0
339 2 2 0 2.091 -68.805 -27.000 0 0 0
340 2 2 0 3.485 -68.805 -27.000 0 0 0
341 2 2 0 4.182 -70.012 -27.000 0 0 0
342 2 2 0 5.575 -70.012 -27.000 0 0 0
343 2 2 0 6.272 -68.805 -27.000 0 0 0
344 2 2 0 7.666 -68.805 -27.000 0 0 0
345 2 2 0 8.363 -70.012 -27.000 0 0 0
346 2 2 0 9.757 -70.012 -27.000 0 0 0
347 2 2 0 10.454 -68.805 -27.000 0 0 0
348 2 2 0 11.848 -68.805 -27.000 0 0 0
349 2 2 0 12.545 -70.012 -27.000 0 0 0
350 2 2 0 13.938 -70.012 -27.000 0 0 0
351 2 2 0 14.635 -68.805 -27.000 0 0 0
352 2 2 0 16.029 -68.805 -27.000 0 0 0
353 2 2 0 16.726 -70.012 -27.000 0 0 0
354 2 2 0 18.120 -70.012 -27.000 0 0 0
355 2 2 0 18.817 -68.805 -27.000 0 0 0
356 2 2 0 20.211 -68.805 -27.000 0 0 0
357 2 2 0 20.908 -70.012 -27.000 0 0 0
358 2 2 0 22.301 -70.012 -27.000 0 0 0
359 2 2 0 22.998 -68.805 -27.000 0 0 0
360 2 2 0 24.392 -68.805 -27.000 0 0 0
361 2 2 0 25.089 -70.012 -27.000 0 0 0
362 2 2 0 26.483 -70.012 -27.000 0 0 0
363 2 2 0 27.180 -68.805 -27.000 0 0 0
364 2 2 0 28.574 -68.805 -27.000 0 0 0
365 2 2 0 29.271 -70.012 -27.000 0 0 0
366 2 2 0 30.664 -70.012 -27.000 0 0 0
367 2 2 0 31.361 -68.805 -27.000 0 0 0
368 2 2 0 32.755 -68.805 -27.000 0 0 0
369 2 2 0 0.000 -67.598 -27.000 0 0 0
370 2 2 0 1.394 -67.598 -27.000 0 0 0
371 2 2 0 2.091 -66.390 -27.000 0 0 0
372 2 2 0 3.485 -66.390 -27.000 0 0 0
373 2 2 0 4.182 -67.598 -27.000 0 0 0
374 2 2 0 5.575 -67.598 -27.000 0 0 0
375 2 2 0 6.272 -66.390 -27.000 0 0 0
376 2 2 0 7.666 -66.390 -27.000 0 0 0
377 2 2 0 8.363 -67.598 -27.000 0 0 0
378 2 2 0 9.757 -67.598 -27.000 0 0 0
379 2 2 0 10.454 -66.390 -27.000 0 0 0
380 2 2 0 11.848 -66.390 -27.000 0 0 0
381 2 2 0 12.545 -67.598 -27.000 0 0 0
382 2 2 0 13.938 -67.598 -27.000 0 0 0
383 2 2 0 14.635 -66.390 -27.000 0 0 0
384 2 2 0 16.029 -66.390 -27.000 0 0 0
385 2 2 0 16.726 -67.598 -27.000 0 0 0
386 2 2 0 18.120 -67.598 -27.000 0 0 0
387 2 2 0 18.817 -66.390 -27.000 0 0 0
388 2 2 0 20.211 -66.390 -27.000 0 0 0
389 2 2 0 20.908 -67.598 -27.000 0 0 0
390 2 2 0 22.301 -67.598 -27.000 0 0 0
391 2 2 0 22.998 -66.390 -27.000 0 0 0
392 2 2 0 24.392 -66.390 -27.000 0 0 0
393 2 2 0 25.089 -67.598 -27.000 0 0 0
394 2 2 0 26.483 -67.598 -27.000 0 0 0
395 2 2 0 27.180 -66.390 -27.000 0 0 0
396 2 2 0 28.574 -66.390 -27.000 0 0 0
397 2 2 0 29.271 -67.598 -27.000 0 0 0
398 2 2 0 30.664 -67.598 -27.000 0 0 0
399 2 2 0 31.361 -66.390 -27.000 0 0 0
400 2 2 0 32.755 -66.390 -27.000 0 0 0
401 2 2 0 0.000 -65.183 -27.000 0 0 0
402 2 2 0 1.394 -65.183 -27.000 0 0 0
403 2 2 0 2.091 -63.976 -27.000 0 0 0
404 2 2 0 3.485 -63.976 -27.000 0 0 0
405 2 2 0 4.182 -65.183 -27.000 0 0 0
406 2 2 0 5.575 -65.183 -27.000 0 0 0
407 2 2 0 6.272 -63.976 -27.000 0 0 0
408 2 2 0 7.666 -63.976 -27.000 0 0 0
409 2 2 0 8.363 -65.183 -27.000 0 0 0
410 2 2 0 9.757 -65.183 -27.000 0 0 0
411 2 2 0 10.454 -63.976 -27.000 0 0 0
412 2 2 0 11.848 -63.976 -27.000 0 0 0
413 2 2 0 12.545 -65.183 -27.000 0 0 0
414 2 2 0 13.938 -65.183 -27.000 0 0 0
415 2 2 0 14.635 -63.976 -27.000 0 0 0
416 2 2 0 16.029 -63.976 -27.000 0 0 0
417 2 2 0 16.726 -65.183 -27.000 0 0 0
418 2 2 0 18.120 -65.183 -27.000 0 0 0
419 2 2 0 18.817 -63.976 -27.000 0 0 0
420 2 2 0 20.211 -63.976 -27.000 0 0 0
421 2 2 0 20.908 -65.183 -27.000 0 0 0
422 2 2 0 22.301 -65.183 -27.000 0 0 0
423 2 2 0 22.998 -63.976 -27.000 0 0 0
424 2 2 0 24.392 -63.976 -27.000 0 0 0
425 2 2 0 25.089 -65.183 -27.000 0 0 0
426 2 2 0 26.483 -65.183 -27.000 0 0 0
427 2 2 0 27.180 -63.976 -27.000 0 0 0
428 2 2 0 28.574 -63.976 -27.000 0 0 0
429 2 2 0 29.271 -65.183 -27.000 0 0 0
430 2 2 0 30.664 -65.183 -27.000 0 0 0
431 2 2 0 31.361 -63.976 -27.000 0 0 0
432 2 2 0 32.755 -63.976 -27.000 0 0 0
433 2 2 0 0.000 -62.769 -27.000 0 0 0
434 2 2 0 1.394 -62.769 -27.000 0 0 0
435 2 2 0 2.091 -61.562 -27.000 0 0 0
436 2 2 0 3.485 -61.562 -27.000 0 0 0
437 2 2 0 4.182 -62.769 -27.000 0 0 0
438 2 2 0 5.575 -62.769 -27.000 0 0 0
439 2 2 0 6.272 -61.562 -27.000 0 0 0
440 2 2 0 7.666 -61.562 -27.000 0 0 0
441 2 2 0 8.363 -62.769 -27.000 0 0 0
442 2 2 0 9.757 -62.769 -27.000 0 0 0
443 2 2 0 10.454 -61.562 -27.000 0 0 0
444 2 2 0 11.848 -61.562 -27.000 0 0 0
445 2 2 0 12.545 -62.769 -27.000 0 0 0
446 2 2 0 13.938 -62.769 -27.000 0 0 0
447 2 2 0 14.635 -61.562 -27.000 0 0 0
448 2 2 0 16.029 -61.562 -27.000 0 0 0
449 2 2 0 16.726 -62.769 -27.000 0 0 0
450 2 2 0 18.120 -62.769 -27.000 0 0 0
451 2 2 0 18.817 -61.562 -27.000 0 0 0
452 2 2 0 20.211 -61.562 -27.000 0 0 0
453 2 2 0 20.908 -62.769 -27.000 0 0 0
454 2 2 0 22.301 -62.769 -27.000 0 0 0
455 2 2 0 22.998 -61.562 -27.000 0 0 0
456 2 2 0 24.392 -61.562 -27.000 0 0 0
457 2 2 0 25.089 -62.769 -27.000 0 0 0
458 2 2 0 26.483 -62.769 -27.000 0 0 0
459 2 2 0 27.180 -61.562 -27.000 0 0 0
460 2 2 0 28.574 -61.562 -27.000 0 0 0
461 2 2 0 29.271 -62.769 -27.000 0 0 0
462 2 2 0 30.664 -62.769 -27.000 0 0 0
463 2 2 0 31.361 -61.562 -27.000 0 0 0
464 2 2 0 32.755 -61.562 -27.000 0 0 0
465 2 2 0 0.000 -60.355 -27.000 0 0 0
466 2 2 0 1.394 -60.355 -27.000 0 0 0
467 2 2 0 2.091 -59.148 -27.000 0 0 0
468 2 2 0 3.485 -59.148 -27.000 0 0 0
469 2 2 0 4.182 -60.355 -27.000 0 0 0
470 2 2 0 5.575 -60.355 -27.000 0 0 0
471 2 2 0 6.272 -59.148 -27.000 0 0 0
472 2 2 0 7.666 -59.148 -27.000 0 0 0
473 2 2 0 8.363 -60.355 -27.000 0 0 0
474 2 2 0 9.757 -60.355 -27.000 0 0 0
475 2 2 0 10.454 -59.148 -27.000 0 0 0
476 2 2 0 11.848 -59.148 -27.000 0 0 0
477 2 2 0 12.545 -60.355 -27.000 0 0 0
478 2 2 0 13.938 -60.355 -27.000 0 0 0
479 2 2 0 14.635 -59.148 -27.000 0 0 0
480 2 2 0 16.029 -59.148 -27.000 0 0 0
481 2 2 0 16.726 -60.355 -27.000 0 0 0
482 2 2 0 18.120 -60.355 -27.000 0 0 0
483 2 2 0 18.817 -59.148 -27.000 0 0 0
484 2 2 0 20.211 -59.148 -27.000 0 0 0
485 2 2 0 20.908 -60.355 -27.000 0 0 0
486 2 2 0 22.301 -60.355 -27.000 0 0 0
487 2 2 0 22.998 -59.148 -27.000 0 0 0
488 2 2 0 24.392 -59.148 -27.000 0 0 0
489 2 2 0 25.089 -60.355 -27.000 0 0 0
490 2 2 0 26.483 -60.355 -27.000 0 0 0
491 2 2 0 27.180 -59.148 -27.000 0 0 0
492 2 2 0 28.574 -59.148 -27.000 0 0 0
493 2 2 0 29.271 -60.355 -27.000 0 0 0
494 2 2 0 30.664 -60.355 -27.000 0 0 0
495 2 2 0 31.361 -59.148 -27.000 0 0 0
496 2 2 0 32.755 -59.148 -27.000 0 0 0
497 2 2 0 0.000 -57.941 -27.000 0 0 0
498 2 2 0 1.394 -57.941 -27.000 0 0 0
499 2 2 0 2.091 -56.734 -27.000 0 0 0
500 2 2 0 3.485 -56.734 -27.000 0 0 0
501 2 2 0 4.182 -57.941 -27.000 0 0 0
502 2 2 0 5.575 -57.941 -27.000 0 0 0
503 2 2 0 6.272 -56.734 -27.000 0 0 0
504 2 2 0 7.666 -56.734 -27.000 0 0 0
505 2 2 0 8.363 -57.941 -27.000 0 0 0
506 2 2 0 9.757 -57.941 -27.000 0 0 0
507 2 2 0 10.454 -56.734 -27.000 0 0 0
508 2 2 0 11.848 -56.734 -27.000 0 0 0
509 2 2 0 12.545 -57.941 -27.000 0 0 0
510 2 2 0 13.938 -57.941 -27.000 0 0 0
511 2 2 0 14.635 -56.734 -27.000 0 0 0
512 2 2 0 16.029 -56.734 -27.000 0 0 0
513 2 2 0 16.726 -57.941 -27.000 0 0 0
514 2 2 0 18.120 -57.941 -27.000 0 0 0
515 2 2 0 18.817 -56.734 -27.000 0 0 0
516 2 2 0 20.211 -56.734 -27.000 0 0 0
517 2 2 0 20.908 -57.941 -27.000 0 0 0
518 2 2 0 22.301 -57.941 -27.000 0 0 0
519 2 2 0 22.998 -56.734 -27.000 0 0 0
520 2 2 0 24.392 -56.734 -27.000 0 0 0
521 2 2 0 25.089 -57.941 -27.000 0 0 0
522 2 2 0 26.483 -57.941 -27.000 0 0 0
523 2 2 0 27.180 -56.734 -27.000 0 0 0
524 2 2 0 28.574 -56.734 -27.000 0 0 0
525 2 2 0 29.271 -57.941 -27.000 0 0 0
526 2 2 0 30.664 -57.941 -27.000 0 0 0
527 2 2 0 31.361 -56.734 -27.000 0 0 0
528 2 2 0 32.755 -56.734 -27.000 0 0 0
529 2 2 0 0.000 -55.527 -27.000 0 0 0
530 2 2 0 1.394 -55.527 -27.000 0 0 0
531 2 2 0 2.091 -54.319 -27.000 0 0 0
532 2 2 0 3.485 -54.319 -27.000 0 0 0
533 2 2 0 4.182 -55.527 -27.000 0 0 0
534 2 2 0 5.575 -55.527 -27.000 0 0 0
535 2 2 0 6.272 -54.319 -27.000 0 0 0
536 2 2 0 7.666 -54.319 -27.000 0 0 0
537 2 2 0 8.363 -55.527 -27.000 0 0 0
538 2 2 0 9.757 -55.527 -27.000 0 0 0
539 2 2 0 10.454 -54.319 -27.000 0 0 0
540 2 2 0 11.848 -54.319 -27.000 0 0 0
541 2 2 0 12.545 -55.527 -27.000 0 0 0
542 2 2 0 13.938 -55.527 -27.000 0 0 0
543 2 2 0 14.635 -54.319 -27.000 0 0 0
544 2 2 0 16.029 -54.319 -27.000 0 0 0
545 2 2 0 16.726 -55.527 -27.000 0 0 0
546 2 2 0 18.120 -55.527 -27.000 0 0 0
547 2 2 0 18.817 -54.319 -27.000 0 0 0
548 2 2 0 20.211 -54.319 -27.000 0 0 0
549 2 2 0 20.908 -55.527 -27.000 0 0 0
550 2 2 0 22.301 -55.527 -27.000 0 0 0
551 2 2 0 22.998 -54.319 -27.000 0 0 0
552 2 2 0 24.392 -54.319 -27.000 0 0 0
553 2 2 0 25.089 -55.527 -27.000 0 0 0
554 2 2 0 26.483 -55.527 -27.000 0 0 0
555 2 2 0 27.180 -54.319 -27.000 0 0 0
556 2 2 0 28.574 -54.319 -27.000 0 0 0
557 2 2 0 29.271 -55.527 -27.000 0 0 0
558 2 2 0 30.664 -55.527 -27.000 0 0 0
559 2 2 0 31.361 -54.319 -27.000 0 0 0
560 2 2 0 32.755 -54.319 -27.000 0 0 0
561 2 2 0 0.000 -53.112 -27.000 0 0 0
562 2 2 0 1.394 -53.112 -27.000 0 0 0
563 2 2 0 2.091 -51.905 -27.000 0 0 0
564 2 2 0 3.485 -51.905 -27.000 0 0 0
565 2 2 0 4.182 -53.112 -27.000 0 0 0
566 2 2 0 5.575 -53.112 -27.000 0 0 0
567 2 2 0 6.272 -51.905 -27.000 0 0 0
568 2 2 0 7.666 -51.905 -27.000 0 0 0
569 2 2 0 8.363 -53.112 -27.000 0 0 0
570 2 2 0 9.757 -53.112 -27.000 0 0 0
571 2 2 0 10.454 -51.905 -27.000 0 0 0
572 2 2 0 11.848 -51.905 -27.000 0 0 0
573 2 2 0 12.545 -53.112 -27.000 0 0 0
574 2 2 0 13.938 -53.112 -27.000 0 0 0
575 2 2 0 14.635 -51.905 -27.000 0 0 0
576 2 2 0 16.029 -51.905 -27.000 0 0 0
577 2 2 0 16.726 -53.112 -27.000 0 0 0
578 2 2 0 18.120 -53.112 -27.000 0 0 0
579 2 2 0 18.817 -51.905 -27.000 0 0 0
580 2 2 0 20.211 -51.905 -27.000 0 0 0
581 2 2 0 20.908 -53.112 -27.000 0 0 0
582 2 2 0 22.301 -53.112 -27.000 0 0 0
583 2 2 0 22.998 -51.905 -27.000 0 0 0
584 2 2 0 24.392 -51.905 -27.000 0 0 0
585 2 2 0 25.089 -53.112 -27.000 0 0 0
586 2 2 0 26.483 -53.112 -27.000 0 0 0
587 2 2 0 27.180 -51.905 -27.000 0 0 0
588 2 2 0 28.574 -51.905 -27.000 0 0 0
589 2 2 0 29.271 -53.112 -27.000 0 0 0
590 2 2 0 30.664 -53.112 -27.000 0 0 0
591 2 2 0 31.361 -51.905 -27.000 0 0 0
592 2 2 0 32.755 -51.905 -27.000 0 0 0
593 2 2 0 0.000 -50.698 -27.000 0 0 0
594 2 2 0 1.394 -50.698 -27.000 0 0 0
595 2 2 0 2.091 -49.491 -27.000 0 0 0
596 2 2 0 3.485 -49.491 -27.000 0 0 0
597 2 2 0 4.182 -50.698 -27.000 0 0 0
598 2 2 0 5.575 -50.698 -27.000 0 0 0
599 2 2 0 6.272 -49.491 -27.000 0 0 0
600 2 2 0 7.666 -49.491 -27.000 0 0 0
601 2 2 0 8.363 -50.698 -27.000 0 0 0
602 2 2 0 9.757 -50.698 -27.000 0 0 0
603 2 2 0 10.454 -49.491 -27.000 0 0 0
604 2 2 0 11.848 -49.491 -27.000 0 0 0
605 2 2 0 12.545 -50.698 -27.000 0 0 0
606 2 2 0 13.938 -50.698 -27.000 0 0 0
607 2 2 0 14.635 -49.491 -27.000 0 0 0
608 2 2 0 16.029 -49.491 -27.000 0 0 0
609 2 2 0 16.726 -50.698 -27.000 0 0 0
610 2 2 0 18.120 -50.698 -27.000 0 0 0
611 2 2 0 18.817 -49.491 -27.000 0 0 0
612 2 2 0 20.211 -49.491 -27.000 0 0 0
613 2 2 0 20.908 -50.698 -27.000 0 0 0
614 2 2 0 22.301 -50.698 -27.000 0 0 0
615 2 2 0 22.998 -49.491 -27.000 0 0 0
616 2 2 0 24.392 -49.491 -27.000 0 0 0
617 2 2 0 25.089 -50.698 -27.000 0 0 0
618 2 2 0 26.483 -50.698 -27.000 0 0 0
619 2 2 0 27.180 -49.491 -27.000 0 0 0
620 2 2 0 28.574 -49.491 -27.000 0 0 0
621 2 2 0 29.271 -50.698 -27.000 0 0 0
622 2 2 0 30.664 -50.698 -27.000 0 0 0
623 2 2 0 31.361 -49.491 -27.000 0 0 0
624 2 2 0 32.755 -49.491 -27.000 0 0 0
625 2 2 0 0.000 -48.284 -27.000 0 0 0
626 2 2 0 1.394 -48.284 -27.000 0 0 0
627 2 2 0 2.091 -47.077 -27.000 0 0 0
628 2 2 0 3.485 -47.077 -27.000 0 0 0
629 2 2 0 4.182 -48.284 -27.000 0 0 0
630 2 2 0 5.575 -48.284 -27.000 0 0 0
631 2 2 0 6.272 -47.077 -27.000 0 0 0
632 2 2 0 7.666 -47.077 -27.000 0 0 0
633 2 2 0 8.363 -48.284 -27.000 0 0 0
634 2 2 0 9.757 -48.284 -27.000 0 0 0
635 2 2 0 10.454 -47.077 -27.000 0 0 0
636 2 2 0 11.848 -47.077 -27.000 0 0 0
637 2 2 0 12.545 -48.284 -27.000 0 0 0
638 2 2 0 13.938 -48.284 -27.000 0 0 0
639 2 2 0 14.635 -47.077 -27.000 0 0 0
640 2 2 0 16.029 -47.077 -27.000 0 0 0
641 2 2 0 16.726 -48.284 -27.000 0 0 0
642 2 2 0 18.120 -48.284 -27.000 0 0 0
643 2 2 0 18.817 -47.077 -27.000 0 0 0
644 2 2 0 20.211 -47.077 -27.000 0 0 0
645 2 2 0 20.908 -48.284 -27.000 0 0 0
646 2 2 0 22.301 -48.284 -27.000 0 0 0
647 2 2 0 22.998 -47.077 -27.000 0 0 0
648 2 2 0 24.392 -47.077 -27.000 0 0 0
649 2 2 0 25.089 -48.284 -27.000 0 0 0
650 2 2 0 26.483 -48.284 -27.000 0 0 0
651 2 2 0 27.180 -47.077 -27.000 0 0 0
652 2 2 0 28.574 -47.077 -27.000 0 0 0
653 2 2 0 29.271 -48.284 -27.000 0 0 0
654 2 2 0 30.664 -48.284 -27.000 0 0 0
655 2 2 0 31.361 -47.077 -27.000 0 0 0
656 2 2 0 32.755 -47.077 -27.000 0 0 0
657 2 2 0 0.000 -45.870 -27.000 0 0 0
658 2 2 0 1.394 -45.870 -27.000 0 0 0
659 2 2 0 2.091 -44.663 -27.000 0 0 0
660 2 2 0 3.485 -44.663 -27.000 0 0 0
661 2 2 0 4.182 -45.870 -27.000 0 0 0
662 2 2 0 5.575 -45.870 -27.000 0 0 0
663 2 2 0 6.272 -44.663 -27.000 0 0 0
664 2 2 0 7.666 -44.663 -27.000 0 0 0
665 2 2 0 8.363 -45.870 -27.000 0 0 0
666 2 2 0 9.757 -45.870 -27.000 0 0 0
667 2 2 0 10.454 -44.663 -27.000 0 0 0
668 2 2 0 11.848 -44.663 -27.000 0 0 0
669 2 2 0 12.545 -45.870 -27.000 0 0 0
670 2 2 0 13.938 -45.870 -27.000 0 0 0
671 2 2 0 14.635 -44.663 -27.000 0 0 0
672 2 2 0 16.029 -44.663 -27.000 0 0 0
673 2 2 0 16.726 -45.870 -27.000 0 0 0
674 2 2 0 18.120 -45.870 -27.000 0 0 0
675 2 2 0 18.817 -44.663 -27.000 0 0 0
676 2 2 0 20.211 -44.663 -27.000 0 0 0
677 2 2 0 20.908 -45.870 -27.000 0 0 0
678 2 2 0 22.301 -45.870 -27.000 0 0 0
679 2 2 0 22.998 -44.663 -27.000 0 0 0
680 2 2 0 24.392 -44.663 -27.000 0 0 0
681 2 2 0 25.089 -45.870 -27.000 0 0 0
682 2 2 0 26.483 -45.870 -27.000 0 0 0
683 2 2 0 27.180 -44.663 -27.000 0 0 0
684 2 2 0 28.574 -44.663 -27.000 0 0 0
685 2 2 0 29.271 -45.870 -27.000 0 0 0
686 2 2 0 30.664 -45.870 -27.000 0 0 0
687 2 2 0 31.361 -44.663 -27.000 0 0 0
688 2 2 0 32.755 -44.663 -27.000 0 0 0
689 2 2 0 0.000 -43.456 -27.000 0 0 0
690 2 2 0 1.394 -43.456 -27.000 0 0 0
691 2 2 0 2.091 -42.248 -27.000 0 0 0
692 2 2 0 3.485 -42.248 -27.000 0 0 0
693 2 2 0 4.182 -43.456 -27.000 0 0 0
694 2 2 0 5.575 -43.456 -27.000 0 0 0
695 2 2 0 6.272 -42.248 -27.000 0 0 0
696 2 2 0 7.666 -42.248 -27.000 0 0 0
697 2 2 0 8.363 -43.456 -27.000 0 0 0
698 2 2 0 9.757 -43.456 -27.000 0 0 0
699 2 2 0 10.454 -42.248 -27.000 0 0 0
700 2 2 0 11.848 -42.248 -27.000 0 0 0
701 2 2 0 12.545 -43.456 -27.000 0 0 0
702 2 2 0 13.938 -43.456 -27.000 0 0 0
703 2 2 0 14.635 -42.248 -27.000 0 0 0
704 2 2 0 16.029 -42.248 -27.000 0 0 0
705 2 2 0 16.726 -43.456 -27.000 0 0 0
706 2 2 0 18.120 -43.456 -27.000 0 0 0
707 2 2 0 18.817 -42.248 -27.000 0 0 0
708 2 2 0 20.211 -42.248 -27.000 0 0 0
709 2 2 0 20.908 -43.456 -27.000 0 0 0
710 2 2 0 22.301 -43.456 -27.000 0 0 0
711 2 2 0 22.998 -42.248 -27.000 0 0 0
712 2 2 0 24.392 -42.248 -27.000 0 0 0
713 2 2 0 25.089 -43.456 -27.000 0 0 0
714 2 2 0 26.483 -43.456 -27.000 0 0 0
715 2 2 0 27.180 -42.248 -27.000 0 0 0
716 2 2 0 28.574 -42.248 -27.000 0 0 0
717 2 2 0 29.271 -43.456 -27.000 0 0 0
718 2 2 0 30.664 -43.456 -27.000 0 0 0
719 2 2 0 31.361 -42.248 -27.000 0 0 0
720 2 2 0 32.755 -42.248 -27.000 0 0 0
721 2 2 0 0.000 -41.041 -27.000 0 0 0
722 2 2 0 1.394 -41.041 -27.000 0 0 0
723 2 2 0 2.091 -39.834 -27.000 0 0 0
724 2 2 0 3.485 -39.834 -27.000 0 0 0
725 2 2 0 4.182 -41.041 -27.000 0 0 0
726 2 2 0 5.575 -41.041 -27.000 0 0 0
727 2 2 0 6.272 -39.834 -27.000 0 0 0
728 2 2 0 7.666 -39.834 -27.000 0 0 0
729 2 2 0 8.363 -41.041 -27.000 0 0 0
730 2 2 0 9.757 -41.041 -27.000 0 0 0
731 2 2 0 10.454 -39.834 -27.000 0 0 0
732 2 2 0 11.848 -39.834 -27.000 0 0 0
733 2 2 0 12.545 -41.041 -27.000 0 0 0
734 2 2 0 13.938 -41.041 -27.000 0 0 0
735 2 2 0 14.635 -39.834 -27.000 0 0 0
736 2 2 0 16.029 -39.834 -27.000 0 0 0
737 2 2 0 16.726 -41.041 -27.000 0 0 0
738 2 2 0 18.120 -41.041 -27.000 0 0 0
739 2 2 0 18.817 -39.834 -27.000 0 0 0
740 2 2 0 20.211 -39.834 -27.000 0 0 0
741 2 2 0 20.908 -41.041 -27.000 0 0 0
742 2 2 0 22.301 -41.041 -27.000 0 0 0
743 2 2 0 22.998 -39.834 -27.000 0 0 0
744 2 2 0 24.392 -39.834 -27.000 0 0 0
745 2 2 0 25.089 -41.041 -27.000 0 0 0
746 2 2 0 26.483 -41.041 -27.000 0 0 0
747 2 2 0 27.180 -39.834 -27.000 0 0 0
748 2 2 0 28.574 -39.834 -27.000 0 0 0
749 2 2 0 29.271 -41.041 -27.000 0 0 0
750 2 2 0 30.664 -41.041 -27.000 0 0 0
751 2 2 0 31.361 -39.834 -27.000 0 0 0
752 2 2 0 32.755 -39.834 -27.000 0 0 0
753 2 2 0 0.000 -38.627 -27.000 0 0 0
754 2 2 0 1.394 -38.627 -27.000 0 0 0
755 2 2 0 2.091 -37.420 -27.000 0 0 0
756 2 2 0 3.485 -37.420 -27.000 0 0 0
757 2 2 0 4.182 -38.627 -27.000 0 0 0
758 2 2 0 5.575 -38.627 -27.000 0 0 0
759 2 2 0 6.272 -37.420 -27.000 0 0 0
760 2 2 0 7.666 -37.420 -27.000 0 0 0
761 2 2 0 8.363 -38.627 -27.000 0 0 0
762 2 2 0 9.757 -38.627 -27.000 0 0 0
763 2 2 0 10.454 -37.420 -27.000 0 0 0
764 2 2 0 11.848 -37.420 -27.000 0 0 0
765 2 2 0 12.545 -38.627 -27.000 0 0 0
766 2 2 0 13.938 -38.627 -27.000 0 0 0
767 2 2 0 14.635 -37.420 -27.000 0 0 0
768 2 2 0 16.029 -37.420 -27.000 0 0 0
769 2 2 0 16.726 -38.627 -27.000 0 0 0
770 2 2 0 18.120 -38.627 -27.000 0 0 0
771 2 2 0 18.817 -37.420 -27.000 0 0 0
772 2 2 0 20.211 -37.420 -27.000 0 0 0
773 2 2 0 20.908 -38.627 -27.000 0 0 0
774 2 2 0 22.301 -38.627 -27.000 0 0 0