ITEM: TIMESTEP
5288000
ITEM: NUMBER OF ATOMS
58614
ITEM: BOX BOUNDS pp pp pp
0.0000000000000000e+00 3.3452100000000002e+01
-1.8942099999999999e+02 1.8942099999999999e+02
-1.0000000000000000e+02 1.0000000000000000e+02
ITEM: ATOMS id type x y z vx vy vz c_atomEnergy 
1 1 1.287 -189.421 -69.334 0 0 0 -2.89434 
2 1 6.433 -189.421 -69.334 0 0 0 -2.90506 
3 1 3.86 -189.421 -69.334 0 0 0 -2.8566 
14 1 3.86 -184.964 -69.334 0 0 0 -2.93505 
15 1 1.287 -184.964 -69.334 0 0 0 -2.94582 
16 1 2.573 -187.192 -69.334 0 0 0 -2.91215 
17 1 0 -187.192 -69.334 0 0 0 -2.92716 
18 1 1.46634 -186.571 -67.2588 5.49119 -1.13686 -6.00033 -3.1318 
21 1 6.433 -184.964 -69.334 0 0 0 -2.88607 
23 1 5.146 -187.192 -69.334 0 0 0 -2.8955 
25 1 3.85047 -186.324 -67.0548 5.84927 -0.496733 5.33003 -3.11213 
100 1 2.52989 -184.484 -67.3197 -3.93179 -4.85215 6.20329 -3.07056 
111 1 5.08082 -184.169 -67.1926 8.11725 -7.36816 -8.79998 -3.24829 
26 1 5.33747 -188.396 -67.4831 0.139034 3.59336 -0.198413 -3.07596 
27 1 2.75319 -188.644 -67.7089 0.803236 -3.82014 0.840186 -2.90835 
115 1 2.67997 -185.653 -65.1633 1.49912 -3.93626 -4.25461 -3.1388 
28 1 4.16047 -187.937 -65.2892 2.22972 3.2699 -2.2822 -3.01891 
114 1 5.33671 -185.681 -65.1771 0.524472 -1.37513 3.7911 -3.10232 
24 1 6.58132 -186.328 -67.5111 -4.15097 -0.930898 -1.61809 -3.10083 
101 1 33.2714 -184.127 -67.4038 0.108173 2.01149 0.784394 -3.09912 
113 1 4.07663 -183.177 -65.2421 2.50747 8.74589 -12.3571 -2.94329 
102 1 1.45947 -183.438 -65.1092 0.356658 -0.846225 -2.73887 -3.11436 
40 1 6.59805 -187.98 -65.1339 -2.35244 -3.00296 1.58729 -3.07879 
19 1 0.359038 -188.569 -67.415 -0.573553 -4.22997 -8.7525 -3.09351 
29 1 1.73864 -188.21 -65.1901 4.0407 0.85466 -4.62819 -3.19928 
4 1 11.58 -189.421 -69.334 0 0 0 -2.89726 
5 1 9.006 -189.421 -69.334 0 0 0 -2.84156 
20 1 9.006 -184.964 -69.334 0 0 0 -2.87992 
22 1 7.72 -187.192 -69.334 0 0 0 -2.91145 
32 1 11.58 -184.964 -69.334 0 0 0 -2.91515 
33 1 12.866 -187.192 -69.334 0 0 0 -2.89282 
34 1 10.293 -187.192 -69.334 0 0 0 -2.91528 
35 1 11.6029 -186.011 -67.2503 -1.67007 3.36293 -1.75186 -3.09041 
36 1 9.21256 -186.394 -67.1567 6.03534 -0.772366 1.08668 -3.17349 
110 1 7.62687 -184.06 -67.1152 -2.41307 -3.78359 4.41904 -3.08902 
129 1 10.067 -184.167 -67.5929 1.94706 -5.70702 -2.9999 -2.90055 
38 1 7.80127 -188.83 -67.4231 -5.60756 -2.97834 -3.4013 -3.06549 
37 1 10.2709 -188.695 -67.0164 -5.00774 0.970675 4.56462 -3.13918 
128 1 13.2609 -184.32 -67.329 -4.74318 4.24052 4.68032 -3.05115 
50 1 13.0009 -188.368 -67.3918 1.63757 -1.55485 3.92852 -2.96554 
39 1 9.26261 -187.929 -64.6952 -0.914944 1.74616 -0.593346 -3.04967 
132 1 10.3016 -185.619 -64.8926 0.894043 2.20341 5.71966 -3.16357 
156 1 13.0995 -185.677 -64.7382 -6.69672 -2.72746 7.87673 -2.97381 
52 1 11.9222 -187.871 -65.5107 -2.86392 3.05874 -0.301301 -2.95683 
133 1 7.63207 -185.555 -64.9284 -0.277583 9.33688 -1.5485 -3.15459 
131 1 8.9209 -183.61 -65.5153 1.75394 -2.74678 3.21022 -2.9195 
130 1 11.7094 -183.624 -65.1376 2.25847 3.37282 -8.19713 -3.03928 
6 1 16.726 -189.421 -69.334 0 0 0 -2.93712 
7 1 14.153 -189.421 -69.334 0 0 0 -2.96415 
9 1 19.299 -189.421 -69.334 0 0 0 -2.91015 
31 1 14.153 -184.964 -69.334 0 0 0 -2.87967 
43 1 19.299 -184.964 -69.334 0 0 0 -2.92188 
44 1 16.726 -184.964 -69.334 0 0 0 -2.93355 
45 1 18.013 -187.192 -69.334 0 0 0 -2.93093 
46 1 15.439 -187.192 -69.334 0 0 0 -2.94736 
47 1 16.8096 -186.384 -67.1937 -2.20564 2.77024 -4.3892 -3.21379 
48 1 14.3447 -186.652 -67.1887 -1.27339 -3.70479 8.72112 -3.08636 
60 1 19.3026 -186.636 -67.521 -2.69518 2.33659 -4.27277 -3.11645 
151 1 18.0277 -184.15 -67.1391 -0.710343 1.91657 2.17757 -3.2001 
152 1 15.5873 -184.214 -67.1151 4.20766 -0.256843 -2.70142 -3.15513 
49 1 15.464 -188.703 -67.3796 4.95312 3.38757 -0.148694 -3.13894 
62 1 18.084 -188.826 -67.4034 -0.253251 0.953918 8.15693 -3.01927 
64 1 16.4392 -188.182 -64.9901 1.90126 -0.84647 -5.76288 -3.02724 
180 1 18.1752 -185.985 -65.2112 1.21784 5.51558 1.79733 -3.08357 
51 1 14.2073 -188.003 -65.2806 5.0591 0.983603 -0.668361 -3.05583 
155 1 15.573 -185.834 -65.1458 1.83511 5.70459 -1.13982 -3.18034 
63 1 19.337 -188.14 -65.3161 3.82997 4.04791 -0.225333 -3.14862 
153 1 16.6611 -183.412 -65.1902 -3.48841 -3.4305 -4.23799 -3.02227 
178 1 19.0838 -183.631 -64.8535 0.667565 3.9704 -6.80173 -3.15908 
61 1 20.1946 -188.873 -67.3478 1.94368 5.14399 0.971982 -2.89146 
176 1 20.4572 -184.327 -66.9632 0.576583 4.40828 0.946925 -3.23316 
8 1 21.872 -189.421 -69.334 0 0 0 -2.89554 
11 1 24.446 -189.421 -69.334 0 0 0 -2.86875 
55 1 24.446 -184.964 -69.334 0 0 0 -2.85626 
56 1 21.872 -184.964 -69.334 0 0 0 -2.89909 
57 1 23.159 -187.192 -69.334 0 0 0 -2.89639 
58 1 20.586 -187.192 -69.334 0 0 0 -2.90569 
59 1 21.691 -186.593 -67.221 -2.4803 -3.45302 5.18096 -3.1856 
70 1 25.732 -187.192 -69.334 0 0 0 -2.91782 
72 1 24.5354 -185.928 -67.3005 -8.98242 -2.07971 4.35562 -2.97361 
175 1 23.0143 -184.059 -67.4763 -1.10022 -0.139913 -8.74351 -3.0294 
200 1 25.9773 -183.972 -67.1281 1.06038 3.41021 -7.99385 -3.09665 
74 1 23.0731 -188.896 -67.3126 0.961811 8.8183 1.72964 -3.1183 
73 1 25.8359 -188.376 -67.0542 2.70228 -2.51035 -5.09653 -3.10446 
203 1 25.968 -185.508 -65.0242 -3.88057 3.09273 -8.52618 -3.17676 
75 1 24.4253 -188.074 -65.0654 5.54514 -1.09135 3.94743 -3.02669 
76 1 21.8619 -187.992 -65.0287 -4.0763 4.51693 3.03595 -3.17821 
179 1 20.4034 -185.712 -64.9973 -0.83765 6.8514 -2.21621 -3.04526 
177 1 21.9951 -183.786 -65.0505 3.93067 -5.16844 -0.390035 -3.09176 
103 1 0.139685 -185.747 -65.1606 -2.39664 -0.80451 -3.17955 -3.14133 
201 1 27.3571 -183.275 -65.1515 2.93203 5.49629 6.56464 -3.09028 
71 1 27.2021 -186.397 -67.511 -4.63399 -5.32571 2.01632 -3.07542 
86 1 27.2218 -188.065 -64.9709 7.51009 -9.04487 1.41205 -2.95503 
10 1 27.019 -189.421 -69.334 0 0 0 -2.89405 
12 1 32.165 -189.421 -69.334 0 0 0 -2.97618 
13 1 29.592 -189.421 -69.334 0 0 0 -2.92156 
67 1 29.592 -184.964 -69.334 0 0 0 -2.88333 
68 1 27.019 -184.964 -69.334 0 0 0 -2.93496 
69 1 28.305 -187.192 -69.334 0 0 0 -2.90456 
79 1 32.165 -184.964 -69.334 0 0 0 -2.84561 
80 1 30.879 -187.192 -69.334 0 0 0 -2.91021 
81 1 32.2744 -186.324 -67.5649 0.0938206 -4.99321 -1.0423 -3.01209 
82 1 29.793 -186.493 -67.3636 -3.06136 5.15561 5.49518 -3.12405 
199 1 28.6588 -184.082 -67.511 -3.26959 1.60414 3.62943 -3.07138 
218 1 30.8727 -184.259 -66.899 5.73923 3.59188 -1.0141 -3.05772 
83 1 31.1278 -188.501 -67.2705 0.809663 -1.95937 3.88144 -3.14608 
84 1 28.3016 -188.72 -67.2356 -6.77879 -0.175431 3.92372 -3.25103 
222 1 28.4452 -185.898 -65.5348 -3.29004 1.36199 -0.153799 -3.08204 
89 1 32.328 -188.368 -65.3063 -1.69619 3.29053 0.801282 -2.94923 
85 1 29.5521 -188.057 -64.8836 -2.92198 1.79664 -1.33314 -3.00749 
221 1 31.0113 -186.156 -64.6552 -3.148 -0.169618 0.891569 -3.01868 
220 1 29.9922 -183.711 -64.9129 4.50064 -4.76981 0.779513 -3.05931 
92 1 1.287 -180.507 -69.334 0 0 0 -2.81032 
93 1 0 -182.735 -69.334 0 0 0 -2.82135 
94 1 6.433 -180.507 -69.334 0 0 0 -2.91989 
95 1 3.86 -180.507 -69.334 0 0 0 -2.88916 
96 1 5.146 -182.735 -69.334 0 0 0 -2.94081 
97 1 2.573 -182.735 -69.334 0 0 0 -2.86319 
98 1 4.14765 -181.839 -67.2562 -6.60161 -1.28547 -1.29353 -2.97383 
99 1 1.58916 -181.878 -66.7619 0.538249 2.36058 -6.06293 -3.00673 
250 1 2.573 -178.278 -69.334 0 0 0 -2.96676 
251 1 0 -178.278 -69.334 0 0 0 -2.89687 
257 1 5.146 -178.278 -69.334 0 0 0 -2.91083 
260 1 5.06441 -179.712 -67.465 7.57662 1.68689 6.58174 -3.04718 
261 1 2.6795 -179.683 -66.9128 1.68998 -0.401009 4.76087 -3.11075 
264 1 2.59247 -181.041 -64.512 -10.2675 -0.945753 4.71107 -3.1701 
279 1 4.96103 -180.78 -64.9673 -1.52326 5.90608 5.1745 -3.01687 
277 1 6.31304 -179.239 -65.4289 8.63013 2.80402 1.57473 -2.89217 
262 1 3.60575 -178.867 -64.5941 -2.34595 -2.85658 9.17627 -3.10264 
258 1 6.60194 -177.283 -67.3323 2.86494 -10.5878 5.52397 -3.13044 
263 1 1.08357 -179.045 -65.1927 -1.35562 -6.43234 10.2132 -2.99703 
265 1 33.4338 -181.148 -64.9584 10.9912 5.33779 2.39925 -3.07246 
112 1 6.16199 -183.419 -65.0977 3.68649 5.11552 0.793705 -3.03347 
109 1 6.30202 -182.013 -67.2038 -2.78278 -4.0141 2.4025 -3.13766 
104 1 11.58 -180.507 -69.334 0 0 0 -2.91863 
105 1 9.006 -180.507 -69.334 0 0 0 -2.94317 
106 1 10.293 -182.735 -69.334 0 0 0 -2.90295 
107 1 7.72 -182.735 -69.334 0 0 0 -2.97908 
108 1 9.10971 -182.041 -67.2572 2.65091 5.66424 5.87544 -3.1249 
125 1 12.866 -182.735 -69.334 0 0 0 -2.93204 
127 1 11.6787 -182.177 -67.2443 -3.19995 5.18559 0.311018 -3.26832 
256 1 7.72 -178.278 -69.334 0 0 0 -2.93183 
270 1 12.866 -178.278 -69.334 0 0 0 -2.91023 
271 1 10.293 -178.278 -69.334 0 0 0 -2.93784 
274 1 10.2812 -179.825 -67.2771 -2.68771 -3.01613 5.54505 -3.24006 
275 1 7.57617 -180.011 -67.4031 6.60876 5.8383 1.43366 -3.10736 
297 1 12.8002 -179.884 -66.925 -4.85867 -3.67209 -1.21628 -3.0761 
300 1 12.2958 -181.419 -64.6905 1.51957 -2.00196 4.09755 -3.00612 
299 1 11.0265 -179.065 -64.6972 1.62484 1.9638 2.16897 -3.09079 
276 1 8.65028 -179.248 -65.3735 -4.7952 2.56854 10.5155 -3.0773 
278 1 7.31742 -181.291 -64.7419 3.8336 2.48584 -3.89431 -2.95746 
301 1 10.0765 -181.423 -65.169 -0.31056 -5.16828 -2.98419 -3.10951 
154 1 13.8068 -183.277 -65.1613 2.74979 4.01905 -1.13672 -2.99455 
122 1 16.726 -180.507 -69.334 0 0 0 -2.87858 
123 1 14.153 -180.507 -69.334 0 0 0 -2.88571 
124 1 15.439 -182.735 -69.334 0 0 0 -2.93043 
126 1 14.0609 -181.977 -67.2939 -1.32533 -12.4342 5.0286 -3.14867 
146 1 19.299 -180.507 -69.334 0 0 0 -2.91623 
148 1 18.013 -182.735 -69.334 0 0 0 -2.91822 
149 1 19.2796 -182 -67.1435 -4.18389 -5.24924 10.1226 -3.23803 
150 1 16.8338 -182.147 -67.0012 3.51137 1.21866 0.891262 -3.04863 
292 1 18.013 -178.278 -69.334 0 0 0 -2.91076 
293 1 15.439 -178.278 -69.334 0 0 0 -2.93534 
296 1 15.1162 -179.734 -67.3716 -2.89487 -5.17374 2.84533 -3.14515 
327 1 17.9174 -179.676 -67.4654 -4.72115 5.84177 -2.09932 -3.11234 
331 1 15.199 -181.278 -65.2361 -2.51174 -2.9564 -6.92514 -3.08112 
330 1 18.2031 -181.552 -64.8637 -2.15978 -4.45543 6.119 -3.03992 
329 1 16.7302 -179.162 -65.2648 -4.23757 -0.0806114 4.22661 -3.17576 
298 1 14.1167 -179.275 -65.0806 -0.502726 2.43922 3.6445 -3.06126 
328 1 19.0551 -179.376 -64.9607 -1.30182 -2.719 1.37705 -3.1514 
202 1 24.396 -183.342 -64.9577 0.116878 -6.343 0.641881 -3.13033 
326 1 20.5461 -179.741 -67.0387 -1.00806 1.28211 -1.6468 -3.24104 
145 1 21.872 -180.507 -69.334 0 0 0 -2.83433 
147 1 20.586 -182.735 -69.334 0 0 0 -2.90342 
170 1 24.446 -180.507 -69.334 0 0 0 -2.93005 
171 1 25.732 -182.735 -69.334 0 0 0 -2.93672 
172 1 23.159 -182.735 -69.334 0 0 0 -2.90654 
173 1 24.6328 -182.076 -67.2245 0.656325 3.1324 2.76239 -3.20516 
174 1 21.9323 -182.073 -67.4168 7.91339 -2.41146 -7.86016 -3.08352 
322 1 23.159 -178.278 -69.334 0 0 0 -2.92295 
323 1 20.586 -178.278 -69.334 0 0 0 -2.9366 
358 1 25.732 -178.278 -69.334 0 0 0 -2.92952 
361 1 25.8467 -179.756 -67.1708 -3.62802 2.80694 0.787738 -3.24938 
362 1 22.8934 -180.021 -67.5179 4.38211 -1.4453 -3.05719 -2.99899 
365 1 23.0628 -181.303 -65.2861 9.10414 4.22687 -2.32633 -3.15266 
364 1 21.8444 -179.215 -64.8634 5.0099 -1.90408 0.575868 -3.0623 
366 1 20.6095 -181.626 -65.18 -1.24043 -2.79642 -5.98103 -3.16434 
363 1 24.0494 -179.141 -65.3709 2.18195 6.59218 -10.0484 -2.96287 
400 1 25.6997 -181.422 -65.1049 -0.265377 -7.08485 -0.895729 -3.19902 
219 1 32.3453 -183.495 -65.045 -3.54039 -3.24992 -3.68956 -3.15724 
253 1 0.387727 -179.476 -67.4628 6.68683 -7.68864 5.29374 -2.90585 
398 1 27.0219 -179.383 -65.0349 1.79637 -1.4123 2.18584 -3.10317 
198 1 27.0265 -182.004 -67.2499 -0.598168 -3.58981 7.68275 -3.16653 
169 1 27.019 -180.507 -69.334 0 0 0 -2.92767 
193 1 32.165 -180.507 -69.334 0 0 0 -2.91121 
194 1 29.592 -180.507 -69.334 0 0 0 -2.88626 
195 1 30.879 -182.735 -69.334 0 0 0 -2.89662 
196 1 28.305 -182.735 -69.334 0 0 0 -2.8555 
197 1 29.6645 -181.867 -66.8299 -2.43912 -3.68437 10.1125 -3.01709 
217 1 32.0951 -181.874 -67.2964 7.48981 -0.329913 -8.21576 -3.10673 
357 1 28.305 -178.278 -69.334 0 0 0 -2.93016 
392 1 30.879 -178.278 -69.334 0 0 0 -2.94009 
395 1 30.909 -179.722 -67.1563 2.73972 -0.463688 -1.6607 -3.17858 
396 1 28.3586 -179.469 -67.224 -5.40445 2.4637 -3.09458 -3.109 
397 1 29.8959 -179.003 -65.0699 3.33619 1.01697 -1.25897 -3.05169 
426 1 31.1745 -181.218 -64.6413 5.1789 -0.250254 -2.98483 -3.11584 
399 1 28.3963 -181.249 -65.3232 -5.29197 -3.86489 -2.05967 -2.88779 
425 1 32.445 -178.975 -65.1397 1.86221 -9.14187 -2.81281 -3.0478 
359 1 27.1952 -177.707 -67.118 1.22183 -8.75544 0.78703 -3.05237 
259 1 3.83096 -177.687 -67.044 1.83532 2.40076 2.74159 -3.13577 
252 1 1.16939 -177.458 -67.3104 6.72181 -0.698278 -2.0125 -3.06425 
248 1 3.86 -176.05 -69.334 0 0 0 -2.87908 
249 1 1.287 -176.05 -69.334 0 0 0 -2.88195 
255 1 6.433 -176.05 -69.334 0 0 0 -2.91382 
483 1 0 -173.821 -69.334 0 0 0 -2.90247 
486 1 5.146 -173.821 -69.334 0 0 0 -2.94473 
487 1 2.573 -173.821 -69.334 0 0 0 -2.93188 
488 1 3.87009 -172.97 -67.2997 -0.146361 2.81186 2.84166 -3.01991 
489 1 1.25003 -173.187 -67.1353 -5.75631 -3.0627 3.4271 -3.16586 
490 1 2.17277 -175.449 -67.2667 -6.9066 1.80765 -4.22938 -3.06537 
501 1 5.05984 -175.425 -67.371 5.90401 -2.48654 10.7686 -3.13524 
504 1 5.11716 -177.075 -65.2098 0.826397 -5.2992 -3.046 -3.08795 
505 1 2.55776 -176.758 -64.8515 -3.84239 -5.46609 1.53924 -3.11418 
503 1 4.07034 -174.896 -65.3009 -2.98381 -2.61314 1.87782 -3.01932 
492 1 1.06463 -174.786 -64.8801 0.0384805 0.781333 1.66017 -2.94918 
499 1 6.36887 -173.23 -67.1446 -2.05915 4.49979 -9.09639 -3.14219 
810 1 2.27899 -172.945 -64.8633 -1.4 -0.633535 -3.39385 -2.83789 
825 1 5.29027 -172.438 -65.1988 -1.79222 5.07717 0.794581 -3.07601 
811 1 33.3185 -172.518 -65.0289 -0.937434 2.50196 1.03846 -3.11217 
491 1 32.9955 -175.338 -67.3125 2.64602 4.73162 1.85939 -3.23018 
502 1 6.37566 -174.749 -64.81 -0.69164 -3.60924 -2.64949 -3.24248 
272 1 11.689 -177.881 -67.0315 2.89217 -0.675068 0.390716 -3.09303 
273 1 8.96909 -177.672 -67.395 1.53359 -4.61612 -7.47314 -3.17648 
254 1 9.006 -176.05 -69.334 0 0 0 -2.96745 
269 1 11.58 -176.05 -69.334 0 0 0 -2.85381 
496 1 10.293 -173.821 -69.334 0 0 0 -2.94812 
497 1 7.72 -173.821 -69.334 0 0 0 -2.91922 
498 1 9.3053 -173.33 -67.2743 0.30723 -2.5825 -2.08432 -3.10235 
500 1 7.82533 -175.218 -67.1984 -7.22448 -1.13686 -5.64743 -3.15831 
515 1 12.866 -173.821 -69.334 0 0 0 -2.93275 
517 1 11.6204 -173.112 -67.3418 3.11165 -2.89845 -1.53313 -3.17119 
519 1 10.4594 -175.592 -67.4266 3.83852 -0.20111 4.8219 -3.15373 
518 1 12.7455 -175.137 -67.3862 -3.16416 -8.6384 -3.59758 -3.08168 
523 1 7.47707 -176.955 -64.8951 2.51034 4.54416 -5.08371 -3.00896 
520 1 11.5283 -174.611 -65.2858 -0.345706 -9.84897 -3.91004 -3.21889 
847 1 10.3651 -172.465 -65.0871 12.9967 1.18811 -6.19279 -3.198 
846 1 12.641 -172.39 -64.9795 1.56017 -1.35834 -2.99617 -2.97092 
521 1 8.97194 -174.648 -65.2065 0.0879519 2.62821 -2.38193 -3.12223 
522 1 10.1825 -176.647 -65.2714 1.78541 1.79795 -2.98468 -3.12778 
549 1 12.8521 -176.736 -65.1584 -2.45137 1.88599 -1.41578 -3.14165 
824 1 7.72704 -172.428 -64.9324 -2.30193 -8.13629 3.6667 -3.30099 
294 1 16.3919 -177.472 -67.4127 -0.374379 -3.23871 1.93327 -3.09203 
325 1 19.3037 -177.696 -67.2434 -5.63189 4.58054 -8.41279 -3.09048 
295 1 14.0058 -177.573 -67.2347 -2.97503 5.70215 -3.67393 -3.2038 
268 1 14.153 -176.05 -69.334 0 0 0 -2.92371 
290 1 19.299 -176.05 -69.334 0 0 0 -2.93783 
291 1 16.726 -176.05 -69.334 0 0 0 -2.85388 
514 1 15.439 -173.821 -69.334 0 0 0 -2.94002 
516 1 14.1584 -172.997 -67.2576 8.6815 3.89906 9.286 -3.24645 
541 1 18.013 -173.821 -69.334 0 0 0 -2.91804 
543 1 16.6691 -172.975 -67.2886 3.51404 2.45897 7.63665 -3.13365 
544 1 18.1242 -175.348 -67.0363 -3.30968 -1.29624 3.74464 -3.21434 
545 1 15.4664 -175.4 -67.6156 -3.42472 2.22023 3.89271 -2.94456 
542 1 19.3817 -173.251 -67.2633 -2.93461 -1.2037 -3.76387 -3.22018 
581 1 19.5659 -174.695 -64.8554 -0.559665 -2.02915 -3.07537 -3.11093 
548 1 15.562 -176.929 -65.1866 3.25009 -6.66598 4.68618 -3.12946 
877 1 15.8143 -172.308 -65.1667 5.2314 5.92194 5.04753 -3.13663 
583 1 17.8951 -177.036 -65.1768 -1.17105 2.86926 -3.37649 -3.12105 
547 1 14.3789 -174.333 -65.1537 -1.72357 -7.70462 1.23808 -2.95271 
546 1 16.6256 -174.786 -64.7866 -0.0185461 -1.0113 0.889146 -2.99158 
876 1 18.3555 -172.451 -64.9622 -5.66735 5.63155 -0.271686 -3.12051 
360 1 24.186 -177.663 -67.1595 0.224125 -2.96023 1.93218 -3.13225 
324 1 21.8795 -177.477 -67.4711 -6.51459 2.70907 -4.95921 -3.0955 
579 1 20.8605 -175.277 -67.4207 1.82245 2.9311 8.60866 -3.06296 
320 1 24.446 -176.05 -69.334 0 0 0 -2.91089 
321 1 21.872 -176.05 -69.334 0 0 0 -2.89979 
540 1 20.586 -173.821 -69.334 0 0 0 -2.93191 
574 1 25.732 -173.821 -69.334 0 0 0 -2.89216 
575 1 23.159 -173.821 -69.334 0 0 0 -2.93561 
576 1 24.2228 -172.955 -67.3582 1.71577 -0.420576 -1.62171 -2.97754 
577 1 22.1145 -172.936 -67.4253 -5.14009 -3.158 -0.185528 -3.01754 
578 1 23.0538 -175.234 -67.1581 0.526516 -1.90032 5.52125 -3.17168 
621 1 25.7807 -175.675 -67.3125 4.88458 1.61017 0.81176 -3.13503 
914 1 23.5067 -172.063 -65.1785 3.13487 -0.707894 1.61248 -3.13939 
624 1 25.5104 -177.291 -65.1253 2.46471 -4.70206 -5.36734 -3.11139 
915 1 20.6823 -172.364 -64.9837 3.63157 2.672 2.26239 -3.16164 
625 1 22.5484 -176.936 -65.25 2.07166 -4.13724 -1.29945 -3.02365 
580 1 21.9654 -174.497 -65.0623 -3.09257 0.95662 1.33777 -3.13304 
623 1 24.3673 -174.304 -65.1295 -5.54104 2.32373 -1.83058 -3.0153 
582 1 20.2261 -177.04 -65.3242 3.22781 -7.97173 -0.864467 -3.00979 
958 1 25.9211 -172.287 -64.8043 0.0939598 -3.30781 0.0320563 -3.03054 
393 1 32.104 -177.65 -67.3455 -4.40994 -5.88454 1.47274 -3.09407 
394 1 29.6301 -177.254 -67.3835 -11.0975 0.638079 3.33899 -3.05202 
493 1 33.4064 -176.654 -64.9898 -3.38779 -2.85859 -7.26909 -3.13589 
664 1 26.6713 -174.822 -65.0065 -2.86116 2.01375 -1.17225 -3.03158 
959 1 26.6955 -173.411 -67.2473 2.21732 3.51379 -0.8689 -3.16953 
355 1 29.592 -176.05 -69.334 0 0 0 -2.88946 
356 1 27.019 -176.05 -69.334 0 0 0 -2.92897 
391 1 32.165 -176.05 -69.334 0 0 0 -2.91402 
616 1 30.879 -173.821 -69.334 0 0 0 -2.97742 
617 1 28.305 -173.821 -69.334 0 0 0 -2.96473 
618 1 29.2944 -173.158 -67.2886 -5.34849 4.86423 -5.70588 -2.97012 
620 1 28.2273 -175.199 -67.248 -2.61133 3.60385 6.43692 -3.09016 
661 1 31.6336 -173.203 -67.1521 1.25224 2.16407 7.29345 -2.94883 
662 1 30.4561 -175.16 -67.3579 -1.47218 -2.47716 0.360854 -2.92429 
663 1 32.004 -174.465 -65.0939 -3.23262 -0.406864 0.513087 -3.20203 
1419 1 29.3696 -174.942 -64.7382 -1.57331 1.85149 -2.71657 -3.04613 
665 1 31.0193 -176.905 -65.5649 0.015386 -4.72202 -3.74835 -2.99538 
622 1 28.1604 -172.737 -64.9399 6.98457 -2.24978 -11.1993 -3.10896 
1003 1 30.5137 -172.246 -65.4341 1.88699 5.56079 -7.99901 -2.93522 
666 1 28.085 -176.838 -64.9831 8.57162 4.37388 1.75472 -3.09193 
482 1 1.287 -171.593 -69.334 0 0 0 -2.92465 
484 1 6.433 -171.593 -69.334 0 0 0 -2.84672 
485 1 3.86 -171.593 -69.334 0 0 0 -2.89848 
794 1 3.86 -167.136 -69.334 0 0 0 -2.87391 
795 1 1.287 -167.136 -69.334 0 0 0 -2.87484 
796 1 2.573 -169.364 -69.334 0 0 0 -2.92692 
797 1 0 -169.364 -69.334 0 0 0 -2.88119 
798 1 1.54974 -168.853 -67.022 -4.49326 1.74541 2.40358 -3.07619 
801 1 6.433 -167.136 -69.334 0 0 0 -2.89083 
803 1 5.146 -169.364 -69.334 0 0 0 -2.89885 
805 1 3.95501 -168.693 -67.2699 0.07383 -4.62845 0.250544 -3.22703 
806 1 4.78207 -171.115 -67.2933 0.137166 9.14615 4.0467 -2.92395 
807 1 2.36 -171.056 -67.2197 -0.41753 -1.71428 0.958047 -3.12327 
1192 1 2.85131 -166.326 -67.323 -3.75992 2.3823 -0.0544777 -3.22552 
1203 1 5.44177 -166.415 -67.0512 -5.28644 -5.65225 0.789037 -3.04371 
1206 1 5.35218 -167.784 -65.0852 -2.67349 -10.0366 1.46865 -3.20154 
809 1 1.41047 -170.029 -65.1697 0.838765 0.360967 -4.42272 -2.97281 
808 1 3.75898 -170.117 -65.2677 0.996185 -3.11423 3.91993 -3.10509 
804 1 6.66488 -168.85 -67.1381 -4.48619 -2.3212 1.81865 -3.15011 
1207 1 2.8289 -167.859 -64.9233 1.71626 -2.51475 -4.22303 -3.27429 
799 1 33.2878 -171.03 -67.2749 4.04398 2.55707 0.870817 -3.1877 
1195 1 0.12723 -168.001 -65.1236 -1.54526 -1.38622 -4.08819 -3.16637 
1204 1 6.50926 -165.568 -65.1977 2.43411 -7.04585 3.72197 -3.1227 
823 1 6.19099 -170.245 -65.3271 -1.70307 5.75546 -9.60563 -3.05762 
494 1 11.58 -171.593 -69.334 0 0 0 -2.94073 
495 1 9.006 -171.593 -69.334 0 0 0 -2.90526 
800 1 9.006 -167.136 -69.334 0 0 0 -2.89046 
802 1 7.72 -169.364 -69.334 0 0 0 -2.85843 
815 1 11.58 -167.136 -69.334 0 0 0 -2.9248 
816 1 12.866 -169.364 -69.334 0 0 0 -2.95212 
817 1 10.293 -169.364 -69.334 0 0 0 -2.94614 
818 1 11.475 -168.615 -67.3454 4.30775 5.13804 4.37157 -3.2066 
819 1 9.15485 -168.497 -67.0192 0.85071 -7.0292 -7.50487 -3.12148 
820 1 10.4115 -170.986 -67.3274 -4.30974 -1.6684 -1.37566 -3.21249 
821 1 8.11443 -170.77 -66.9508 5.37784 2.71954 3.88882 -2.96562 
1202 1 7.63249 -166.267 -67.0813 -2.86094 -2.27556 2.58365 -3.04838 
1221 1 10.2247 -166.592 -67.4671 1.67989 -0.74167 -5.40364 -3.10006 
1220 1 13.0153 -166.394 -67.2744 -5.01383 -1.04495 -4.28404 -3.21897 
843 1 12.89 -170.733 -67.2416 0.960692 3.21136 0.076801 -3.25546 
1224 1 10.3852 -167.964 -65.0712 -6.25246 -1.19992 -6.11616 -3.01485 
822 1 9.23088 -170.195 -65.0705 -4.34939 8.26233 0.966909 -3.05434 
845 1 11.6662 -170.06 -65.2894 2.28922 -2.11684 0.242263 -3.12322 
1251 1 12.7736 -168.106 -65.1216 0.842776 -4.58389 2.79613 -3.11438 
1225 1 7.69984 -168.24 -64.8912 -0.37162 4.4406 2.88011 -3.18231 
1223 1 9.28136 -165.978 -65.0841 -0.804695 -0.943059 -6.01409 -3.17254 
512 1 16.726 -171.593 -69.334 0 0 0 -2.82904 
513 1 14.153 -171.593 -69.334 0 0 0 -2.90706 
539 1 19.299 -171.593 -69.334 0 0 0 -2.89779 
814 1 14.153 -167.136 -69.334 0 0 0 -2.94151 
836 1 19.299 -167.136 -69.334 0 0 0 -2.90288 
837 1 16.726 -167.136 -69.334 0 0 0 -2.94094 
838 1 18.013 -169.364 -69.334 0 0 0 -2.87577 
839 1 15.439 -169.364 -69.334 0 0 0 -2.90404 
840 1 16.5814 -168.586 -67.31 -6.00231 -0.376377 -1.81838 -3.1624 
841 1 14.297 -168.665 -67.2425 7.83438 -8.47439 -2.12784 -3.20234 
842 1 15.4585 -170.906 -67.6478 -2.76238 -2.00442 -3.11685 -2.96593 
871 1 19.3364 -168.536 -67.1884 -1.09715 -0.134504 2.32122 -3.19886 
873 1 18.1773 -171.02 -66.8061 1.22304 -4.64002 5.89673 -3.05407 
1247 1 15.5599 -166.369 -67.1874 1.56637 4.08431 6.67091 -3.17659 
1246 1 17.9539 -166.424 -67.3035 1.78164 1.97128 1.83011 -3.20287 
1285 1 18.2029 -167.981 -65.2962 2.62524 0.243456 -2.43288 -3.13922 
874 1 19.6113 -170.072 -64.956 -2.3753 4.75618 3.55437 -3.16158 
875 1 16.8837 -170.036 -65.0822 5.69191 -0.542896 -6.88442 -3.05794 
844 1 14.2194 -170.424 -65.0139 -5.59108 1.12787 10.1964 -3.13268 
1283 1 19.4965 -165.534 -65.1981 -0.0218786 -0.108033 -0.537457 -3.13583 
1250 1 15.3113 -168.336 -64.8821 8.2655 1.71499 -12.5695 -3.04504 
1281 1 20.9835 -166.529 -67.119 5.99693 3.19759 1.56444 -3.06872 
872 1 20.485 -170.952 -67.1786 7.33673 -0.350867 0.697444 -3.19222 
619 1 25.7731 -170.816 -67.0809 -2.65893 -5.02355 -0.0389288 -3.25293 
538 1 21.872 -171.593 -69.334 0 0 0 -2.93691 
573 1 24.446 -171.593 -69.334 0 0 0 -2.93764 
866 1 24.446 -167.136 -69.334 0 0 0 -2.9317 
867 1 21.872 -167.136 -69.334 0 0 0 -2.93558 
868 1 23.159 -169.364 -69.334 0 0 0 -2.92601 
869 1 20.586 -169.364 -69.334 0 0 0 -2.92258 
870 1 21.8864 -168.709 -67.3307 3.13073 -3.189 -3.49972 -3.15257 
907 1 25.732 -169.364 -69.334 0 0 0 -2.91411 
909 1 24.7248 -168.393 -67.2522 -5.14421 -7.51439 -2.32589 -3.05647 
911 1 23.1229 -170.775 -67.1984 -7.84858 0.851671 -1.61518 -3.17281 
1280 1 23.0848 -166.561 -67.3843 -2.95883 -5.7664 -8.62365 -3.03076 
1323 1 25.7006 -166.048 -67.6419 -4.54946 -2.63757 -1.37352 -2.89792 
1326 1 26.0276 -167.711 -64.8618 5.372 2.33079 0.320984 -3.00054 
1284 1 20.7429 -168.165 -65.1766 -3.28467 3.5338 1.27326 -3.00067 
913 1 22.1198 -170.079 -64.6016 0.565083 3.09326 0.873569 -3.02958 
912 1 24.5381 -169.721 -65.1226 0.202545 -16.3571 4.4908 -3.17132 
1325 1 24.695 -165.622 -65.494 1.72002 -2.99695 0.361664 -3.10425 
1282 1 21.9889 -165.296 -65.287 -0.105397 -2.16117 -2.71312 -2.97435 
1327 1 22.8361 -167.555 -65.2616 -5.93202 -0.469631 -0.445536 -2.97153 
1193 1 0.209931 -166.633 -67.144 3.96405 6.96457 -7.27657 -3.08682 
910 1 26.8309 -168.671 -67.3286 5.62994 -3.01058 -1.52001 -2.96453 
957 1 26.9011 -170.288 -64.813 0.671999 2.08739 -5.51353 -3.05947 
955 1 28.2485 -171.221 -67.2075 -3.98394 -1.18069 -1.99859 -3.1424 
572 1 27.019 -171.593 -69.334 0 0 0 -2.90442 
614 1 32.165 -171.593 -69.334 0 0 0 -2.88997 
615 1 29.592 -171.593 -69.334 0 0 0 -2.87959 
904 1 29.592 -167.136 -69.334 0 0 0 -2.90839 
905 1 27.019 -167.136 -69.334 0 0 0 -2.94885 
906 1 28.305 -169.364 -69.334 0 0 0 -2.92267 
950 1 32.165 -167.136 -69.334 0 0 0 -2.84742 
951 1 30.879 -169.364 -69.334 0 0 0 -2.93345 
952 1 32.0962 -169.052 -66.9601 0.337015 -2.00511 -2.63716 -3.07808 
953 1 29.4965 -168.887 -67.2397 0.429339 -2.63818 -0.0719755 -3.25211 
954 1 30.7264 -171.111 -67.5994 -2.06338 5.14182 3.38146 -2.98354 
1367 1 30.8174 -166.591 -67.301 -6.11684 1.55616 -6.43985 -3.18581 
908 1 28.2693 -166.524 -67.4966 -2.28279 3.50711 -3.05784 -3.05307 
1002 1 32.0931 -170.093 -64.899 0.1237 6.84115 -6.04703 -3.06607 
1373 1 28.5435 -167.975 -64.8614 -10.4689 -3.32832 -1.6438 -3.06177 
956 1 29.6938 -170.2 -65.1466 6.56887 0.807896 5.60436 -3.05905 
1370 1 30.9537 -168.125 -65.0767 -1.72407 -0.803358 2.95809 -3.12232 
1205 1 3.75499 -165.653 -65.0457 4.66047 5.95459 3.30725 -3.2014 
1194 1 1.20609 -165.819 -65.3824 1.27947 -2.12039 -6.65452 -3.09589 
1184 1 1.287 -162.679 -69.334 0 0 0 -2.9327 
1185 1 0 -164.907 -69.334 0 0 0 -2.90551 
1186 1 6.433 -162.679 -69.334 0 0 0 -2.92232 
1187 1 3.86 -162.679 -69.334 0 0 0 -2.94018 
1188 1 5.146 -164.907 -69.334 0 0 0 -2.91128 
1189 1 2.573 -164.907 -69.334 0 0 0 -2.92314 
1190 1 3.77513 -163.984 -67.1565 8.45492 5.5671 1.27652 -3.19597 
1191 1 1.37817 -164.128 -67.4186 1.24832 -5.59639 0.966436 -3.2017 
1654 1 2.573 -160.45 -69.334 0 0 0 -2.95254 
1655 1 0 -160.45 -69.334 0 0 0 -2.94539 
1661 1 5.146 -160.45 -69.334 0 0 0 -2.92392 
1664 1 4.99529 -161.812 -67.2718 2.67085 1.1434 5.80942 -3.20038 
1665 1 2.56338 -161.885 -67.4626 -6.16275 3.34182 5.31264 -3.14907 
1683 1 5.05567 -163.359 -65.1587 -2.09152 -1.63568 2.52962 -3.22657 
1666 1 3.80457 -161.278 -65.2646 -10.8915 3.90139 -2.889 -3.07785 
1667 1 0.911007 -161.257 -65.3879 3.16134 4.11515 1.90585 -3.07938 
1668 1 2.48662 -163.54 -65.0914 3.90566 0.401753 2.25497 -3.20666 
1201 1 6.54523 -164.025 -67.2367 -5.67955 3.42991 -4.05362 -3.23052 
1681 1 6.24566 -161.138 -65.1943 1.4075 2.24226 -2.49607 -3.2131 
1656 1 1.26028 -159.715 -67.2688 -1.92222 5.04449 -0.928812 -3.21684 
1222 1 11.7693 -166.001 -65.3287 -0.550291 4.06918 -2.0241 -3.06814 
1196 1 11.58 -162.679 -69.334 0 0 0 -2.87779 
1197 1 9.006 -162.679 -69.334 0 0 0 -2.93069 
1198 1 10.293 -164.907 -69.334 0 0 0 -2.94221 
1199 1 7.72 -164.907 -69.334 0 0 0 -2.94199 
1200 1 8.87813 -164.373 -67.1511 4.37969 4.89089 -2.15393 -3.18312 
1217 1 12.866 -164.907 -69.334 0 0 0 -2.92563 
1219 1 11.5026 -164.42 -67.0252 -0.447829 1.98113 -4.73802 -3.19091 
1660 1 7.72 -160.45 -69.334 0 0 0 -2.92539 
1674 1 12.866 -160.45 -69.334 0 0 0 -2.92557 
1675 1 10.293 -160.45 -69.334 0 0 0 -2.87628 
1678 1 10.3097 -162.202 -67.2813 -0.341067 -0.394999 -0.272757 -3.12181 
1679 1 7.90057 -161.971 -67.1842 -2.06971 -12.1909 -0.198286 -3.20682 
1701 1 12.7305 -161.963 -67.3568 -0.871058 -0.440301 -5.08676 -3.18687 
1682 1 7.81643 -163.432 -65.0604 -5.38755 -12.0792 -0.922015 -3.19089 
1704 1 13.1253 -163.586 -65.3262 -6.9252 2.38112 -6.39336 -3.07196 
1680 1 9.0291 -161.362 -65.099 0.748394 -7.61819 -6.08984 -3.0828 
1703 1 11.9607 -161.168 -64.7486 3.52061 -1.71853 -5.2011 -3.03669 
1705 1 10.4367 -163.414 -65.0661 -0.273153 -3.3004 2.41077 -3.17547 
1676 1 11.7599 -159.486 -67.1251 3.46933 -2.47755 0.229806 -3.09004 
1249 1 14.3785 -165.845 -65.2005 0.617126 0.683379 -5.24194 -3.20267 
1218 1 14.0567 -164.138 -67.2335 -4.03615 -2.65237 -2.25263 -3.17813 
1214 1 16.726 -162.679 -69.334 0 0 0 -2.93908 
1215 1 14.153 -162.679 -69.334 0 0 0 -2.947 
1216 1 15.439 -164.907 -69.334 0 0 0 -2.94478 
1241 1 19.299 -162.679 -69.334 0 0 0 -2.92981 
1243 1 18.013 -164.907 -69.334 0 0 0 -2.94258 
1244 1 19.2868 -164.152 -67.3363 0.066095 3.05805 -8.06607 -3.20647 
1245 1 16.7713 -164.116 -67.338 3.17787 -4.28812 7.50314 -3.22597 
1696 1 18.013 -160.45 -69.334 0 0 0 -2.90685 
1697 1 15.439 -160.45 -69.334 0 0 0 -2.91377 
1700 1 15.6481 -161.843 -67.2498 -3.11165 7.62777 -2.94703 -3.18512 
1731 1 18.1293 -161.898 -67.4208 2.71635 -2.56303 -4.01271 -3.16785 
1735 1 15.5811 -163.253 -65.1452 6.63455 -0.0113926 -6.20429 -3.09461 
1733 1 17.2745 -161.492 -65.0929 -12.3508 -2.82089 -3.8665 -3.08068 
1732 1 19.5194 -160.822 -65.0602 -1.57288 4.90814 0.514826 -3.15121 
1734 1 18.2535 -163.565 -65.1525 -2.65899 2.55183 0.996401 -2.99899 
1702 1 14.105 -161.506 -65.1437 -0.39414 6.19238 -0.714128 -2.92036 
1248 1 16.9869 -165.902 -64.9497 7.22557 4.91508 -4.93067 -3.0831 
1698 1 16.8295 -159.652 -67.1573 -3.53442 -1.10238 3.93693 -3.25324 
1699 1 14.2273 -159.958 -67.3316 -1.90379 0.0696196 -1.95911 -3.15101 
1730 1 20.5862 -161.814 -67.1983 4.69094 1.19427 0.71297 -3.1871 
1240 1 21.872 -162.679 -69.334 0 0 0 -2.94296 
1242 1 20.586 -164.907 -69.334 0 0 0 -2.91327 
1275 1 24.446 -162.679 -69.334 0 0 0 -2.92236 
1276 1 25.732 -164.907 -69.334 0 0 0 -2.81709 
1277 1 23.159 -164.907 -69.334 0 0 0 -2.97522 
1278 1 24.5203 -163.937 -67.3658 -1.77214 -1.16411 -3.02541 -3.05762 
1279 1 21.8799 -164.21 -67.3962 0.140803 -8.9015 -3.61912 -3.1775 
1726 1 23.159 -160.45 -69.334 0 0 0 -2.92826 
1727 1 20.586 -160.45 -69.334 0 0 0 -2.90161 
1765 1 25.732 -160.45 -69.334 0 0 0 -2.91392 
1768 1 25.869 -162.156 -67.2251 7.43326 1.49564 -0.757661 -3.055 
1769 1 23.1997 -161.994 -67.2228 -5.31389 1.61645 -2.49769 -3.21012 
1773 1 20.6984 -163.208 -65.0204 -7.00518 -5.6076 2.39257 -3.12948 
1771 1 22.1988 -161.31 -64.9332 4.48031 4.18192 -2.77232 -3.1671 