ITEM: TIMESTEP
0
ITEM: NUMBER OF ATOMS
58614
ITEM: BOX BOUNDS pp pp pp
0.0000000000000000e+00 3.3452100000000002e+01
-1.8942099999999999e+02 1.8942099999999999e+02
-1.0000000000000000e+02 1.0000000000000000e+02
ITEM: ATOMS id type x y z vx vy vz c_atomEnergy 
1 1 1.287 -189.421 -69.334 0 0 0 -2.94063 
2 1 6.433 -189.421 -69.334 0 0 0 -2.94063 
3 1 3.86 -189.421 -69.334 0 0 0 -2.94069 
14 1 3.86 -184.964 -69.334 0 0 0 -2.94084 
15 1 1.287 -184.964 -69.334 0 0 0 -2.94078 
16 1 2.573 -187.192 -69.334 0 0 0 -2.9408 
17 1 0 -187.192 -69.334 0 0 0 -2.94072 
18 1 1.287 -186.449 -67.233 0 0 0 -3.29651 
19 1 0 -188.678 -67.233 0 0 0 -3.29659 
21 1 6.433 -184.964 -69.334 0 0 0 -2.94077 
23 1 5.146 -187.192 -69.334 0 0 0 -2.94075 
24 1 6.433 -186.449 -67.233 0 0 0 -3.29656 
25 1 3.86 -186.449 -67.233 0 0 0 -3.29651 
26 1 5.146 -188.678 -67.233 0 0 0 -3.29654 
27 1 2.573 -188.678 -67.233 0 0 0 -3.29653 
28 1 3.86 -187.935 -65.132 0 0 0 -3.28314 
29 1 1.287 -187.935 -65.132 0 0 0 -3.28314 
40 1 6.433 -187.935 -65.132 0 0 0 -3.28319 
100 1 2.573 -184.221 -67.233 0 0 0 -3.29652 
101 1 0 -184.221 -67.233 0 0 0 -3.29658 
103 1 0 -185.706 -65.132 0 0 0 -3.28313 
111 1 5.146 -184.221 -67.233 0 0 0 -3.29653 
114 1 5.146 -185.706 -65.132 0 0 0 -3.28308 
115 1 2.573 -185.706 -65.132 0 0 0 -3.28307 
4 1 11.58 -189.421 -69.334 0 0 0 -2.94064 
5 1 9.006 -189.421 -69.334 0 0 0 -2.94062 
20 1 9.006 -184.964 -69.334 0 0 0 -2.94076 
22 1 7.72 -187.192 -69.334 0 0 0 -2.94073 
32 1 11.58 -184.964 -69.334 0 0 0 -2.94079 
33 1 12.866 -187.192 -69.334 0 0 0 -2.9408 
34 1 10.293 -187.192 -69.334 0 0 0 -2.94074 
35 1 11.58 -186.449 -67.233 0 0 0 -3.29652 
36 1 9.006 -186.449 -67.233 0 0 0 -3.2965 
37 1 10.293 -188.678 -67.233 0 0 0 -3.29658 
38 1 7.72 -188.678 -67.233 0 0 0 -3.29652 
39 1 9.006 -187.935 -65.132 0 0 0 -3.28313 
50 1 12.866 -188.678 -67.233 0 0 0 -3.29653 
52 1 11.58 -187.935 -65.132 0 0 0 -3.28315 
110 1 7.72 -184.221 -67.233 0 0 0 -3.29651 
128 1 12.866 -184.221 -67.233 0 0 0 -3.29652 
129 1 10.293 -184.221 -67.233 0 0 0 -3.29657 
132 1 10.293 -185.706 -65.132 0 0 0 -3.28313 
133 1 7.72 -185.706 -65.132 0 0 0 -3.28307 
156 1 12.866 -185.706 -65.132 0 0 0 -3.28307 
6 1 16.726 -189.421 -69.334 0 0 0 -2.94063 
7 1 14.153 -189.421 -69.334 0 0 0 -2.94069 
9 1 19.299 -189.421 -69.334 0 0 0 -2.94069 
31 1 14.153 -184.964 -69.334 0 0 0 -2.94084 
43 1 19.299 -184.964 -69.334 0 0 0 -2.94084 
44 1 16.726 -184.964 -69.334 0 0 0 -2.94077 
45 1 18.013 -187.192 -69.334 0 0 0 -2.94075 
46 1 15.439 -187.192 -69.334 0 0 0 -2.94075 
47 1 16.726 -186.449 -67.233 0 0 0 -3.29656 
48 1 14.153 -186.449 -67.233 0 0 0 -3.29651 
49 1 15.439 -188.678 -67.233 0 0 0 -3.29654 
51 1 14.153 -187.935 -65.132 0 0 0 -3.28314 
60 1 19.299 -186.449 -67.233 0 0 0 -3.29651 
62 1 18.013 -188.678 -67.233 0 0 0 -3.29654 
63 1 19.299 -187.935 -65.132 0 0 0 -3.28314 
64 1 16.726 -187.935 -65.132 0 0 0 -3.28319 
151 1 18.013 -184.221 -67.233 0 0 0 -3.29653 
152 1 15.439 -184.221 -67.233 0 0 0 -3.29653 
155 1 15.439 -185.706 -65.132 0 0 0 -3.28308 
180 1 18.013 -185.706 -65.132 0 0 0 -3.28308 
8 1 21.872 -189.421 -69.334 0 0 0 -2.94064 
11 1 24.446 -189.421 -69.334 0 0 0 -2.94064 
55 1 24.446 -184.964 -69.334 0 0 0 -2.94079 
56 1 21.872 -184.964 -69.334 0 0 0 -2.94079 
57 1 23.159 -187.192 -69.334 0 0 0 -2.94074 
58 1 20.586 -187.192 -69.334 0 0 0 -2.9408 
59 1 21.872 -186.449 -67.233 0 0 0 -3.29652 
61 1 20.586 -188.678 -67.233 0 0 0 -3.29653 
70 1 25.732 -187.192 -69.334 0 0 0 -2.9408 
72 1 24.446 -186.449 -67.233 0 0 0 -3.29652 
73 1 25.732 -188.678 -67.233 0 0 0 -3.29653 
74 1 23.159 -188.678 -67.233 0 0 0 -3.29658 
75 1 24.446 -187.935 -65.132 0 0 0 -3.28315 
76 1 21.872 -187.935 -65.132 0 0 0 -3.28315 
175 1 23.159 -184.221 -67.233 0 0 0 -3.29657 
176 1 20.586 -184.221 -67.233 0 0 0 -3.29652 
179 1 20.586 -185.706 -65.132 0 0 0 -3.28307 
200 1 25.732 -184.221 -67.233 0 0 0 -3.29652 
203 1 25.732 -185.706 -65.132 0 0 0 -3.28307 
204 1 23.159 -185.706 -65.132 0 0 0 -3.28313 
10 1 27.019 -189.421 -69.334 0 0 0 -2.94069 
12 1 32.165 -189.421 -69.334 0 0 0 -2.9406 
13 1 29.592 -189.421 -69.334 0 0 0 -2.94062 
67 1 29.592 -184.964 -69.334 0 0 0 -2.94077 
68 1 27.019 -184.964 -69.334 0 0 0 -2.94084 
69 1 28.305 -187.192 -69.334 0 0 0 -2.94075 
71 1 27.019 -186.449 -67.233 0 0 0 -3.29651 
79 1 32.165 -184.964 -69.334 0 0 0 -2.94075 
80 1 30.879 -187.192 -69.334 0 0 0 -2.94072 
81 1 32.165 -186.449 -67.233 0 0 0 -3.2965 
82 1 29.592 -186.449 -67.233 0 0 0 -3.29656 
83 1 30.879 -188.678 -67.233 0 0 0 -3.29652 
84 1 28.305 -188.678 -67.233 0 0 0 -3.29654 
85 1 29.592 -187.935 -65.132 0 0 0 -3.28319 
86 1 27.019 -187.935 -65.132 0 0 0 -3.28314 
89 1 32.165 -187.935 -65.132 0 0 0 -3.28313 
199 1 28.305 -184.221 -67.233 0 0 0 -3.29653 
218 1 30.879 -184.221 -67.233 0 0 0 -3.29651 
221 1 30.879 -185.706 -65.132 0 0 0 -3.28306 
222 1 28.305 -185.706 -65.132 0 0 0 -3.28308 
92 1 1.287 -180.507 -69.334 0 0 0 -2.94078 
93 1 0 -182.735 -69.334 0 0 0 -2.94074 
94 1 6.433 -180.507 -69.334 0 0 0 -2.94077 
95 1 3.86 -180.507 -69.334 0 0 0 -2.94084 
96 1 5.146 -182.735 -69.334 0 0 0 -2.94077 
97 1 2.573 -182.735 -69.334 0 0 0 -2.94082 
98 1 3.86 -181.992 -67.233 0 0 0 -3.29652 
99 1 1.287 -181.992 -67.233 0 0 0 -3.29653 
102 1 1.287 -183.478 -65.132 0 0 0 -3.28313 
109 1 6.433 -181.992 -67.233 0 0 0 -3.29658 
112 1 6.433 -183.478 -65.132 0 0 0 -3.28318 
113 1 3.86 -183.478 -65.132 0 0 0 -3.28312 
250 1 2.573 -178.278 -69.334 0 0 0 -2.94082 
251 1 0 -178.278 -69.334 0 0 0 -2.94074 
253 1 0 -179.764 -67.233 0 0 0 -3.29658 
257 1 5.146 -178.278 -69.334 0 0 0 -2.94077 
260 1 5.146 -179.764 -67.233 0 0 0 -3.29653 
261 1 2.573 -179.764 -67.233 0 0 0 -3.29652 
262 1 3.86 -179.021 -65.132 0 0 0 -3.28312 
263 1 1.287 -179.021 -65.132 0 0 0 -3.28313 
264 1 2.573 -181.249 -65.132 0 0 0 -3.28307 
265 1 0 -181.249 -65.132 0 0 0 -3.28314 
277 1 6.433 -179.021 -65.132 0 0 0 -3.28318 
279 1 5.146 -181.249 -65.132 0 0 0 -3.28309 
104 1 11.58 -180.507 -69.334 0 0 0 -2.94079 
105 1 9.006 -180.507 -69.334 0 0 0 -2.94076 
106 1 10.293 -182.735 -69.334 0 0 0 -2.94076 
107 1 7.72 -182.735 -69.334 0 0 0 -2.94075 
108 1 9.006 -181.992 -67.233 0 0 0 -3.29651 
125 1 12.866 -182.735 -69.334 0 0 0 -2.94082 
127 1 11.58 -181.992 -67.233 0 0 0 -3.29653 
130 1 11.58 -183.478 -65.132 0 0 0 -3.28313 
131 1 9.006 -183.478 -65.132 0 0 0 -3.28312 
256 1 7.72 -178.278 -69.334 0 0 0 -2.94075 
270 1 12.866 -178.278 -69.334 0 0 0 -2.94082 
271 1 10.293 -178.278 -69.334 0 0 0 -2.94076 
274 1 10.293 -179.764 -67.233 0 0 0 -3.29657 
275 1 7.72 -179.764 -67.233 0 0 0 -3.29651 
276 1 9.006 -179.021 -65.132 0 0 0 -3.28312 
278 1 7.72 -181.249 -65.132 0 0 0 -3.28307 
297 1 12.866 -179.764 -67.233 0 0 0 -3.29652 
299 1 11.58 -179.021 -65.132 0 0 0 -3.28313 
300 1 12.866 -181.249 -65.132 0 0 0 -3.28308 
301 1 10.293 -181.249 -65.132 0 0 0 -3.28314 
122 1 16.726 -180.507 -69.334 0 0 0 -2.94077 
123 1 14.153 -180.507 -69.334 0 0 0 -2.94084 
124 1 15.439 -182.735 -69.334 0 0 0 -2.94077 
126 1 14.153 -181.992 -67.233 0 0 0 -3.29652 
146 1 19.299 -180.507 -69.334 0 0 0 -2.94084 
148 1 18.013 -182.735 -69.334 0 0 0 -2.94077 
149 1 19.299 -181.992 -67.233 0 0 0 -3.29652 
150 1 16.726 -181.992 -67.233 0 0 0 -3.29658 
153 1 16.726 -183.478 -65.132 0 0 0 -3.28318 
154 1 14.153 -183.478 -65.132 0 0 0 -3.28312 
178 1 19.299 -183.478 -65.132 0 0 0 -3.28312 
292 1 18.013 -178.278 -69.334 0 0 0 -2.94077 
293 1 15.439 -178.278 -69.334 0 0 0 -2.94077 
296 1 15.439 -179.764 -67.233 0 0 0 -3.29653 
298 1 14.153 -179.021 -65.132 0 0 0 -3.28312 
327 1 18.013 -179.764 -67.233 0 0 0 -3.29653 
328 1 19.299 -179.021 -65.132 0 0 0 -3.28312 
329 1 16.726 -179.021 -65.132 0 0 0 -3.28318 
330 1 18.013 -181.249 -65.132 0 0 0 -3.28309 
331 1 15.439 -181.249 -65.132 0 0 0 -3.28309 
145 1 21.872 -180.507 -69.334 0 0 0 -2.94079 
147 1 20.586 -182.735 -69.334 0 0 0 -2.94082 
170 1 24.446 -180.507 -69.334 0 0 0 -2.94079 
171 1 25.732 -182.735 -69.334 0 0 0 -2.94082 
172 1 23.159 -182.735 -69.334 0 0 0 -2.94076 
173 1 24.446 -181.992 -67.233 0 0 0 -3.29653 
174 1 21.872 -181.992 -67.233 0 0 0 -3.29653 
177 1 21.872 -183.478 -65.132 0 0 0 -3.28313 
202 1 24.446 -183.478 -65.132 0 0 0 -3.28313 
322 1 23.159 -178.278 -69.334 0 0 0 -2.94076 
323 1 20.586 -178.278 -69.334 0 0 0 -2.94082 
326 1 20.586 -179.764 -67.233 0 0 0 -3.29652 
358 1 25.732 -178.278 -69.334 0 0 0 -2.94082 
361 1 25.732 -179.764 -67.233 0 0 0 -3.29652 
362 1 23.159 -179.764 -67.233 0 0 0 -3.29657 
363 1 24.446 -179.021 -65.132 0 0 0 -3.28313 
364 1 21.872 -179.021 -65.132 0 0 0 -3.28313 
365 1 23.159 -181.249 -65.132 0 0 0 -3.28313 
366 1 20.586 -181.249 -65.132 0 0 0 -3.28308 
400 1 25.732 -181.249 -65.132 0 0 0 -3.28308 
169 1 27.019 -180.507 -69.334 0 0 0 -2.94084 
193 1 32.165 -180.507 -69.334 0 0 0 -2.94075 
194 1 29.592 -180.507 -69.334 0 0 0 -2.94077 
195 1 30.879 -182.735 -69.334 0 0 0 -2.94074 
196 1 28.305 -182.735 -69.334 0 0 0 -2.94077 
197 1 29.592 -181.992 -67.233 0 0 0 -3.29657 
198 1 27.019 -181.992 -67.233 0 0 0 -3.29652 
201 1 27.019 -183.478 -65.132 0 0 0 -3.28312 
217 1 32.165 -181.992 -67.233 0 0 0 -3.29651 
219 1 32.165 -183.478 -65.132 0 0 0 -3.28312 
220 1 29.592 -183.478 -65.132 0 0 0 -3.28318 
357 1 28.305 -178.278 -69.334 0 0 0 -2.94077 
392 1 30.879 -178.278 -69.334 0 0 0 -2.94074 
395 1 30.879 -179.764 -67.233 0 0 0 -3.29651 
396 1 28.305 -179.764 -67.233 0 0 0 -3.29653 
397 1 29.592 -179.021 -65.132 0 0 0 -3.28318 
398 1 27.019 -179.021 -65.132 0 0 0 -3.28312 
399 1 28.305 -181.249 -65.132 0 0 0 -3.28309 
425 1 32.165 -179.021 -65.132 0 0 0 -3.28312 
426 1 30.879 -181.249 -65.132 0 0 0 -3.28307 
248 1 3.86 -176.05 -69.334 0 0 0 -2.94084 
249 1 1.287 -176.05 -69.334 0 0 0 -2.94078 
252 1 1.287 -177.535 -67.233 0 0 0 -3.29653 
255 1 6.433 -176.05 -69.334 0 0 0 -2.94077 
258 1 6.433 -177.535 -67.233 0 0 0 -3.29658 
259 1 3.86 -177.535 -67.233 0 0 0 -3.29652 
483 1 0 -173.821 -69.334 0 0 0 -2.94075 
486 1 5.146 -173.821 -69.334 0 0 0 -2.94078 
487 1 2.573 -173.821 -69.334 0 0 0 -2.94082 
488 1 3.86 -173.078 -67.233 0 0 0 -3.2965 
489 1 1.287 -173.078 -67.233 0 0 0 -3.29651 
490 1 2.573 -175.307 -67.233 0 0 0 -3.29654 
491 1 0 -175.307 -67.233 0 0 0 -3.2966 
492 1 1.287 -174.564 -65.132 0 0 0 -3.28308 
493 1 0 -176.792 -65.132 0 0 0 -3.28314 
499 1 6.433 -173.078 -67.233 0 0 0 -3.29656 
501 1 5.146 -175.307 -67.233 0 0 0 -3.29655 
502 1 6.433 -174.564 -65.132 0 0 0 -3.28313 
503 1 3.86 -174.564 -65.132 0 0 0 -3.28307 
504 1 5.146 -176.792 -65.132 0 0 0 -3.28309 
505 1 2.573 -176.792 -65.132 0 0 0 -3.28308 
810 1 2.573 -172.336 -65.132 0 0 0 -3.28308 
811 1 0 -172.336 -65.132 0 0 0 -3.28314 
825 1 5.146 -172.336 -65.132 0 0 0 -3.28309 
254 1 9.006 -176.05 -69.334 0 0 0 -2.94076 
269 1 11.58 -176.05 -69.334 0 0 0 -2.94079 
272 1 11.58 -177.535 -67.233 0 0 0 -3.29653 
273 1 9.006 -177.535 -67.233 0 0 0 -3.29651 
496 1 10.293 -173.821 -69.334 0 0 0 -2.94076 
497 1 7.72 -173.821 -69.334 0 0 0 -2.94075 
498 1 9.006 -173.078 -67.233 0 0 0 -3.2965 
500 1 7.72 -175.307 -67.233 0 0 0 -3.29654 
515 1 12.866 -173.821 -69.334 0 0 0 -2.94083 
517 1 11.58 -173.078 -67.233 0 0 0 -3.29651 
518 1 12.866 -175.307 -67.233 0 0 0 -3.29654 
519 1 10.293 -175.307 -67.233 0 0 0 -3.2966 
520 1 11.58 -174.564 -65.132 0 0 0 -3.28308 
521 1 9.006 -174.564 -65.132 0 0 0 -3.28307 
522 1 10.293 -176.792 -65.132 0 0 0 -3.28314 
523 1 7.72 -176.792 -65.132 0 0 0 -3.28307 
549 1 12.866 -176.792 -65.132 0 0 0 -3.28308 
824 1 7.72 -172.336 -65.132 0 0 0 -3.28307 
846 1 12.866 -172.336 -65.132 0 0 0 -3.28308 
847 1 10.293 -172.336 -65.132 0 0 0 -3.28314 
268 1 14.153 -176.05 -69.334 0 0 0 -2.94084 
290 1 19.299 -176.05 -69.334 0 0 0 -2.94084 
291 1 16.726 -176.05 -69.334 0 0 0 -2.94077 
294 1 16.726 -177.535 -67.233 0 0 0 -3.29658 
295 1 14.153 -177.535 -67.233 0 0 0 -3.29652 
325 1 19.299 -177.535 -67.233 0 0 0 -3.29652 
514 1 15.439 -173.821 -69.334 0 0 0 -2.94078 
516 1 14.153 -173.078 -67.233 0 0 0 -3.2965 
541 1 18.013 -173.821 -69.334 0 0 0 -2.94078 
542 1 19.299 -173.078 -67.233 0 0 0 -3.2965 
543 1 16.726 -173.078 -67.233 0 0 0 -3.29656 
544 1 18.013 -175.307 -67.233 0 0 0 -3.29655 
545 1 15.439 -175.307 -67.233 0 0 0 -3.29655 
546 1 16.726 -174.564 -65.132 0 0 0 -3.28313 
547 1 14.153 -174.564 -65.132 0 0 0 -3.28307 
548 1 15.439 -176.792 -65.132 0 0 0 -3.28309 
581 1 19.299 -174.564 -65.132 0 0 0 -3.28307 
583 1 18.013 -176.792 -65.132 0 0 0 -3.28309 
876 1 18.013 -172.336 -65.132 0 0 0 -3.28309 
877 1 15.439 -172.336 -65.132 0 0 0 -3.28309 
320 1 24.446 -176.05 -69.334 0 0 0 -2.94079 
321 1 21.872 -176.05 -69.334 0 0 0 -2.94079 
324 1 21.872 -177.535 -67.233 0 0 0 -3.29653 
360 1 24.446 -177.535 -67.233 0 0 0 -3.29653 
540 1 20.586 -173.821 -69.334 0 0 0 -2.94083 
574 1 25.732 -173.821 -69.334 0 0 0 -2.94083 
575 1 23.159 -173.821 -69.334 0 0 0 -2.94076 
576 1 24.446 -173.078 -67.233 0 0 0 -3.29651 
577 1 21.872 -173.078 -67.233 0 0 0 -3.29651 
578 1 23.159 -175.307 -67.233 0 0 0 -3.2966 
579 1 20.586 -175.307 -67.233 0 0 0 -3.29654 
580 1 21.872 -174.564 -65.132 0 0 0 -3.28308 
582 1 20.586 -176.792 -65.132 0 0 0 -3.28308 
621 1 25.732 -175.307 -67.233 0 0 0 -3.29654 
623 1 24.446 -174.564 -65.132 0 0 0 -3.28308 
624 1 25.732 -176.792 -65.132 0 0 0 -3.28308 
625 1 23.159 -176.792 -65.132 0 0 0 -3.28314 
914 1 23.159 -172.336 -65.132 0 0 0 -3.28314 
915 1 20.586 -172.336 -65.132 0 0 0 -3.28308 
959 1 25.732 -172.336 -65.132 0 0 0 -3.28308 
355 1 29.592 -176.05 -69.334 0 0 0 -2.94077 
356 1 27.019 -176.05 -69.334 0 0 0 -2.94084 
359 1 27.019 -177.535 -67.233 0 0 0 -3.29652 
391 1 32.165 -176.05 -69.334 0 0 0 -2.94075 
393 1 32.165 -177.535 -67.233 0 0 0 -3.29651 
394 1 29.592 -177.535 -67.233 0 0 0 -3.29657 
616 1 30.879 -173.821 -69.334 0 0 0 -2.94074 
617 1 28.305 -173.821 -69.334 0 0 0 -2.94078 
618 1 29.592 -173.078 -67.233 0 0 0 -3.29656 
619 1 27.019 -173.078 -67.233 0 0 0 -3.2965 
620 1 28.305 -175.307 -67.233 0 0 0 -3.29655 
622 1 27.019 -174.564 -65.132 0 0 0 -3.28307 
661 1 32.165 -173.078 -67.233 0 0 0 -3.2965 
662 1 30.879 -175.307 -67.233 0 0 0 -3.29653 
663 1 32.165 -174.564 -65.132 0 0 0 -3.28307 
664 1 29.592 -174.564 -65.132 0 0 0 -3.28313 
665 1 30.879 -176.792 -65.132 0 0 0 -3.28307 
666 1 28.305 -176.792 -65.132 0 0 0 -3.28309 
958 1 28.305 -172.336 -65.132 0 0 0 -3.28309 
1003 1 30.879 -172.336 -65.132 0 0 0 -3.28307 
482 1 1.287 -171.593 -69.334 0 0 0 -2.94077 
484 1 6.433 -171.593 -69.334 0 0 0 -2.94077 
485 1 3.86 -171.593 -69.334 0 0 0 -2.94083 
794 1 3.86 -167.136 -69.334 0 0 0 -2.94083 
795 1 1.287 -167.136 -69.334 0 0 0 -2.94077 
796 1 2.573 -169.364 -69.334 0 0 0 -2.94082 
797 1 0 -169.364 -69.334 0 0 0 -2.94075 
798 1 1.287 -168.621 -67.233 0 0 0 -3.2965 
799 1 0 -170.85 -67.233 0 0 0 -3.2966 
801 1 6.433 -167.136 -69.334 0 0 0 -2.94077 
803 1 5.146 -169.364 -69.334 0 0 0 -2.94078 
804 1 6.433 -168.621 -67.233 0 0 0 -3.29655 
805 1 3.86 -168.621 -67.233 0 0 0 -3.2965 
806 1 5.146 -170.85 -67.233 0 0 0 -3.29655 
807 1 2.573 -170.85 -67.233 0 0 0 -3.29654 
808 1 3.86 -170.107 -65.132 0 0 0 -3.28312 
809 1 1.287 -170.107 -65.132 0 0 0 -3.28313 
823 1 6.433 -170.107 -65.132 0 0 0 -3.28318 
1192 1 2.573 -166.393 -67.233 0 0 0 -3.29654 
1193 1 0 -166.393 -67.233 0 0 0 -3.2966 
1195 1 0 -167.879 -65.132 0 0 0 -3.28314 
1203 1 5.146 -166.393 -67.233 0 0 0 -3.29655 
1206 1 5.146 -167.879 -65.132 0 0 0 -3.28309 
1207 1 2.573 -167.879 -65.132 0 0 0 -3.28307 
494 1 11.58 -171.593 -69.334 0 0 0 -2.94078 
495 1 9.006 -171.593 -69.334 0 0 0 -2.94076 
800 1 9.006 -167.136 -69.334 0 0 0 -2.94076 
802 1 7.72 -169.364 -69.334 0 0 0 -2.94075 
815 1 11.58 -167.136 -69.334 0 0 0 -2.94078 
816 1 12.866 -169.364 -69.334 0 0 0 -2.94083 
817 1 10.293 -169.364 -69.334 0 0 0 -2.94076 
818 1 11.58 -168.621 -67.233 0 0 0 -3.2965 
819 1 9.006 -168.621 -67.233 0 0 0 -3.29649 
820 1 10.293 -170.85 -67.233 0 0 0 -3.2966 
821 1 7.72 -170.85 -67.233 0 0 0 -3.29653 
822 1 9.006 -170.107 -65.132 0 0 0 -3.28312 
843 1 12.866 -170.85 -67.233 0 0 0 -3.29654 
845 1 11.58 -170.107 -65.132 0 0 0 -3.28313 
1202 1 7.72 -166.393 -67.233 0 0 0 -3.29653 
1220 1 12.866 -166.393 -67.233 0 0 0 -3.29654 
1221 1 10.293 -166.393 -67.233 0 0 0 -3.2966 
1224 1 10.293 -167.879 -65.132 0 0 0 -3.28314 
1225 1 7.72 -167.879 -65.132 0 0 0 -3.28307 
1251 1 12.866 -167.879 -65.132 0 0 0 -3.28308 
512 1 16.726 -171.593 -69.334 0 0 0 -2.94077 
513 1 14.153 -171.593 -69.334 0 0 0 -2.94083 
539 1 19.299 -171.593 -69.334 0 0 0 -2.94083 
814 1 14.153 -167.136 -69.334 0 0 0 -2.94083 
836 1 19.299 -167.136 -69.334 0 0 0 -2.94083 
837 1 16.726 -167.136 -69.334 0 0 0 -2.94077 
838 1 18.013 -169.364 -69.334 0 0 0 -2.94078 
839 1 15.439 -169.364 -69.334 0 0 0 -2.94078 
840 1 16.726 -168.621 -67.233 0 0 0 -3.29655 
841 1 14.153 -168.621 -67.233 0 0 0 -3.29649 
842 1 15.439 -170.85 -67.233 0 0 0 -3.29655 
844 1 14.153 -170.107 -65.132 0 0 0 -3.28312 
871 1 19.299 -168.621 -67.233 0 0 0 -3.29649 
873 1 18.013 -170.85 -67.233 0 0 0 -3.29655 
874 1 19.299 -170.107 -65.132 0 0 0 -3.28312 
875 1 16.726 -170.107 -65.132 0 0 0 -3.28318 
1246 1 18.013 -166.393 -67.233 0 0 0 -3.29655 
1247 1 15.439 -166.393 -67.233 0 0 0 -3.29655 
1250 1 15.439 -167.879 -65.132 0 0 0 -3.28309 
1285 1 18.013 -167.879 -65.132 0 0 0 -3.28309 
538 1 21.872 -171.593 -69.334 0 0 0 -2.94078 
573 1 24.446 -171.593 -69.334 0 0 0 -2.94078 
866 1 24.446 -167.136 -69.334 0 0 0 -2.94078 
867 1 21.872 -167.136 -69.334 0 0 0 -2.94078 
868 1 23.159 -169.364 -69.334 0 0 0 -2.94076 
869 1 20.586 -169.364 -69.334 0 0 0 -2.94083 
870 1 21.872 -168.621 -67.233 0 0 0 -3.2965 
872 1 20.586 -170.85 -67.233 0 0 0 -3.29654 
907 1 25.732 -169.364 -69.334 0 0 0 -2.94083 
909 1 24.446 -168.621 -67.233 0 0 0 -3.2965 
910 1 25.732 -170.85 -67.233 0 0 0 -3.29654 
911 1 23.159 -170.85 -67.233 0 0 0 -3.2966 
912 1 24.446 -170.107 -65.132 0 0 0 -3.28313 
913 1 21.872 -170.107 -65.132 0 0 0 -3.28313 
1280 1 23.159 -166.393 -67.233 0 0 0 -3.2966 
1281 1 20.586 -166.393 -67.233 0 0 0 -3.29654 
1284 1 20.586 -167.879 -65.132 0 0 0 -3.28308 
1323 1 25.732 -166.393 -67.233 0 0 0 -3.29654 
1326 1 25.732 -167.879 -65.132 0 0 0 -3.28308 
1327 1 23.159 -167.879 -65.132 0 0 0 -3.28313 
572 1 27.019 -171.593 -69.334 0 0 0 -2.94083 
614 1 32.165 -171.593 -69.334 0 0 0 -2.94074 
615 1 29.592 -171.593 -69.334 0 0 0 -2.94077 
904 1 29.592 -167.136 -69.334 0 0 0 -2.94077 
905 1 27.019 -167.136 -69.334 0 0 0 -2.94083 
906 1 28.305 -169.364 -69.334 0 0 0 -2.94078 
908 1 27.019 -168.621 -67.233 0 0 0 -3.29649 
950 1 32.165 -167.136 -69.334 0 0 0 -2.94074 
951 1 30.879 -169.364 -69.334 0 0 0 -2.94074 
952 1 32.165 -168.621 -67.233 0 0 0 -3.29649 
953 1 29.592 -168.621 -67.233 0 0 0 -3.29655 
954 1 30.879 -170.85 -67.233 0 0 0 -3.29653 
955 1 28.305 -170.85 -67.233 0 0 0 -3.29655 
956 1 29.592 -170.107 -65.132 0 0 0 -3.28318 
957 1 27.019 -170.107 -65.132 0 0 0 -3.28312 
1002 1 32.165 -170.107 -65.132 0 0 0 -3.28312 
1322 1 28.305 -166.393 -67.233 0 0 0 -3.29655 
1367 1 30.879 -166.393 -67.233 0 0 0 -3.29653 
1370 1 30.879 -167.879 -65.132 0 0 0 -3.28307 
1371 1 28.305 -167.879 -65.132 0 0 0 -3.28309 
1184 1 1.287 -162.679 -69.334 0 0 0 -2.94082 
1185 1 0 -164.907 -69.334 0 0 0 -2.94075 
1186 1 6.433 -162.679 -69.334 0 0 0 -2.94081 
1187 1 3.86 -162.679 -69.334 0 0 0 -2.94088 
1188 1 5.146 -164.907 -69.334 0 0 0 -2.94078 
1189 1 2.573 -164.907 -69.334 0 0 0 -2.94082 
1190 1 3.86 -164.164 -67.233 0 0 0 -3.2965 
1191 1 1.287 -164.164 -67.233 0 0 0 -3.29651 
1194 1 1.287 -165.65 -65.132 0 0 0 -3.28313 
1201 1 6.433 -164.164 -67.233 0 0 0 -3.29656 
1204 1 6.433 -165.65 -65.132 0 0 0 -3.28318 
1205 1 3.86 -165.65 -65.132 0 0 0 -3.28312 
1654 1 2.573 -160.45 -69.334 0 0 0 -2.94085 
1655 1 0 -160.45 -69.334 0 0 0 -2.94077 
1657 1 0 -161.936 -67.233 0 0 0 -3.29655 
1661 1 5.146 -160.45 -69.334 0 0 0 -2.9408 
1664 1 5.146 -161.936 -67.233 0 0 0 -3.2965 
1665 1 2.573 -161.936 -67.233 0 0 0 -3.29649 
1666 1 3.86 -161.193 -65.132 0 0 0 -3.28312 
1667 1 1.287 -161.193 -65.132 0 0 0 -3.28313 
1668 1 2.573 -163.422 -65.132 0 0 0 -3.28308 
1669 1 0 -163.422 -65.132 0 0 0 -3.28315 
1681 1 6.433 -161.193 -65.132 0 0 0 -3.28318 
1683 1 5.146 -163.422 -65.132 0 0 0 -3.28309 
1196 1 11.58 -162.679 -69.334 0 0 0 -2.94083 
1197 1 9.006 -162.679 -69.334 0 0 0 -2.9408 
1198 1 10.293 -164.907 -69.334 0 0 0 -2.94076 
1199 1 7.72 -164.907 -69.334 0 0 0 -2.94075 
1200 1 9.006 -164.164 -67.233 0 0 0 -3.29649 
1217 1 12.866 -164.907 -69.334 0 0 0 -2.94083 
1219 1 11.58 -164.164 -67.233 0 0 0 -3.29651 
1222 1 11.58 -165.65 -65.132 0 0 0 -3.28313 
1223 1 9.006 -165.65 -65.132 0 0 0 -3.28312 
1660 1 7.72 -160.45 -69.334 0 0 0 -2.94078 
1674 1 12.866 -160.45 -69.334 0 0 0 -2.94085 
1675 1 10.293 -160.45 -69.334 0 0 0 -2.94079 
1678 1 10.293 -161.936 -67.233 0 0 0 -3.29655 
1679 1 7.72 -161.936 -67.233 0 0 0 -3.29649 
1680 1 9.006 -161.193 -65.132 0 0 0 -3.28312 
1682 1 7.72 -163.422 -65.132 0 0 0 -3.28308 
1701 1 12.866 -161.936 -67.233 0 0 0 -3.29649 
1703 1 11.58 -161.193 -65.132 0 0 0 -3.28313 
1704 1 12.866 -163.422 -65.132 0 0 0 -3.28308 
1705 1 10.293 -163.422 -65.132 0 0 0 -3.28314 
1214 1 16.726 -162.679 -69.334 0 0 0 -2.94082 
1215 1 14.153 -162.679 -69.334 0 0 0 -2.94088 
1216 1 15.439 -164.907 -69.334 0 0 0 -2.94078 
1218 1 14.153 -164.164 -67.233 0 0 0 -3.2965 
1241 1 19.299 -162.679 -69.334 0 0 0 -2.94088 
1243 1 18.013 -164.907 -69.334 0 0 0 -2.94078 
1244 1 19.299 -164.164 -67.233 0 0 0 -3.2965 
1245 1 16.726 -164.164 -67.233 0 0 0 -3.29656 
1248 1 16.726 -165.65 -65.132 0 0 0 -3.28318 
1249 1 14.153 -165.65 -65.132 0 0 0 -3.28312 
1283 1 19.299 -165.65 -65.132 0 0 0 -3.28312 
1696 1 18.013 -160.45 -69.334 0 0 0 -2.9408 
1697 1 15.439 -160.45 -69.334 0 0 0 -2.9408 
1700 1 15.439 -161.936 -67.233 0 0 0 -3.2965 
1702 1 14.153 -161.193 -65.132 0 0 0 -3.28312 
1731 1 18.013 -161.936 -67.233 0 0 0 -3.2965 
1732 1 19.299 -161.193 -65.132 0 0 0 -3.28312 
1733 1 16.726 -161.193 -65.132 0 0 0 -3.28318 
1734 1 18.013 -163.422 -65.132 0 0 0 -3.28309 
1735 1 15.439 -163.422 -65.132 0 0 0 -3.28309 
1240 1 21.872 -162.679 -69.334 0 0 0 -2.94083 
1242 1 20.586 -164.907 -69.334 0 0 0 -2.94083 
1275 1 24.446 -162.679 -69.334 0 0 0 -2.94083 
1276 1 25.732 -164.907 -69.334 0 0 0 -2.94083 
1277 1 23.159 -164.907 -69.334 0 0 0 -2.94076 
1278 1 24.446 -164.164 -67.233 0 0 0 -3.29651 
1279 1 21.872 -164.164 -67.233 0 0 0 -3.29651 
1282 1 21.872 -165.65 -65.132 0 0 0 -3.28313 
1325 1 24.446 -165.65 -65.132 0 0 0 -3.28313 
1726 1 23.159 -160.45 -69.334 0 0 0 -2.94079 
1727 1 20.586 -160.45 -69.334 0 0 0 -2.94085 
1730 1 20.586 -161.936 -67.233 0 0 0 -3.29649 
1765 1 25.732 -160.45 -69.334 0 0 0 -2.94085 
1768 1 25.732 -161.936 -67.233 0 0 0 -3.29649 
1769 1 23.159 -161.936 -67.233 0 0 0 -3.29655 
1770 1 24.446 -161.193 -65.132 0 0 0 -3.28313 
1771 1 21.872 -161.193 -65.132 0 0 0 -3.28313 
1772 1 23.159 -163.422 -65.132 0 0 0 -3.28314 
1773 1 20.586 -163.422 -65.132 0 0 0 -3.28308 
1817 1 25.732 -163.422 -65.132 0 0 0 -3.28308 
1274 1 27.019 -162.679 -69.334 0 0 0 -2.94088 
1316 1 32.165 -162.679 -69.334 0 0 0 -2.94079 
1317 1 29.592 -162.679 -69.334 0 0 0 -2.94081 
1318 1 30.879 -164.907 -69.334 0 0 0 -2.94074 
1319 1 28.305 -164.907 -69.334 0 0 0 -2.94078 
1320 1 29.592 -164.164 -67.233 0 0 0 -3.29655 
1321 1 27.019 -164.164 -67.233 0 0 0 -3.2965 
1324 1 27.019 -165.65 -65.132 0 0 0 -3.28312 
1366 1 32.165 -164.164 -67.233 0 0 0 -3.29649 
1368 1 32.165 -165.65 -65.132 0 0 0 -3.28312 
1369 1 29.592 -165.65 -65.132 0 0 0 -3.28318 
1764 1 28.305 -160.45 -69.334 0 0 0 -2.9408 
1809 1 30.879 -160.45 -69.334 0 0 0 -2.94077 
1812 1 30.879 -161.936 -67.233 0 0 0 -3.29648 
1813 1 28.305 -161.936 -67.233 0 0 0 -3.2965 
1814 1 29.592 -161.193 -65.132 0 0 0 -3.28318 
1815 1 27.019 -161.193 -65.132 0 0 0 -3.28312 
1816 1 28.305 -163.422 -65.132 0 0 0 -3.28309 
1860 1 32.165 -161.193 -65.132 0 0 0 -3.28312 
1861 1 30.879 -163.422 -65.132 0 0 0 -3.28308 
1652 1 3.86 -158.222 -69.334 0 0 0 -2.94082 
1653 1 1.287 -158.222 -69.334 0 0 0 -2.94076 
1656 1 1.287 -159.708 -67.233 0 0 0 -3.29651 
1659 1 6.433 -158.222 -69.334 0 0 0 -2.94076 
1662 1 6.433 -159.708 -67.233 0 0 0 -3.29656 
1663 1 3.86 -159.708 -67.233 0 0 0 -3.2965 
2199 1 0 -155.993 -69.334 0 0 0 -2.94076 
2202 1 5.146 -155.993 -69.334 0 0 0 -2.94079 
2203 1 2.573 -155.993 -69.334 0 0 0 -2.94083 
2204 1 3.86 -155.251 -67.233 0 0 0 -3.2965 
2205 1 1.287 -155.251 -67.233 0 0 0 -3.2965 
2206 1 2.573 -157.479 -67.233 0 0 0 -3.29654 
2207 1 0 -157.479 -67.233 0 0 0 -3.2966 
2208 1 1.287 -156.736 -65.132 0 0 0 -3.28311 
2209 1 0 -158.965 -65.132 0 0 0 -3.28316 
2215 1 6.433 -155.251 -67.233 0 0 0 -3.29655 
2217 1 5.146 -157.479 -67.233 0 0 0 -3.29655 
2218 1 6.433 -156.736 -65.132 0 0 0 -3.28316 
2219 1 3.86 -156.736 -65.132 0 0 0 -3.2831 
2220 1 5.146 -158.965 -65.132 0 0 0 -3.28311 
2221 1 2.573 -158.965 -65.132 0 0 0 -3.2831 
2838 1 2.573 -154.508 -65.132 0 0 0 -3.2831 
2839 1 0 -154.508 -65.132 0 0 0 -3.28316 
2853 1 5.146 -154.508 -65.132 0 0 0 -3.28311 
1658 1 9.006 -158.222 -69.334 0 0 0 -2.94075 
1673 1 11.58 -158.222 -69.334 0 0 0 -2.94077 
1676 1 11.58 -159.708 -67.233 0 0 0 -3.29651 
1677 1 9.006 -159.708 -67.233 0 0 0 -3.29649 
2212 1 10.293 -155.993 -69.334 0 0 0 -2.94077 
2213 1 7.72 -155.993 -69.334 0 0 0 -2.94076 
2214 1 9.006 -155.251 -67.233 0 0 0 -3.29649 
2216 1 7.72 -157.479 -67.233 0 0 0 -3.29653 
2231 1 12.866 -155.993 -69.334 0 0 0 -2.94084 
2233 1 11.58 -155.251 -67.233 0 0 0 -3.2965 
2234 1 12.866 -157.479 -67.233 0 0 0 -3.29654 
2235 1 10.293 -157.479 -67.233 0 0 0 -3.2966 
2236 1 11.58 -156.736 -65.132 0 0 0 -3.28311 
2237 1 9.006 -156.736 -65.132 0 0 0 -3.28309 
2238 1 10.293 -158.965 -65.132 0 0 0 -3.28316 
2239 1 7.72 -158.965 -65.132 0 0 0 -3.28309 
2265 1 12.866 -158.965 -65.132 0 0 0 -3.2831 
2852 1 7.72 -154.508 -65.132 0 0 0 -3.28309 
2874 1 12.866 -154.508 -65.132 0 0 0 -3.2831 
2875 1 10.293 -154.508 -65.132 0 0 0 -3.28316 
1672 1 14.153 -158.222 -69.334 0 0 0 -2.94082 
1694 1 19.299 -158.222 -69.334 0 0 0 -2.94082 
1695 1 16.726 -158.222 -69.334 0 0 0 -2.94076 
1698 1 16.726 -159.708 -67.233 0 0 0 -3.29656 
1699 1 14.153 -159.708 -67.233 0 0 0 -3.2965 
1729 1 19.299 -159.708 -67.233 0 0 0 -3.2965 
2230 1 15.439 -155.993 -69.334 0 0 0 -2.94079 
2232 1 14.153 -155.251 -67.233 0 0 0 -3.29649 
2257 1 18.013 -155.993 -69.334 0 0 0 -2.94079 
2258 1 19.299 -155.251 -67.233 0 0 0 -3.29649 
2259 1 16.726 -155.251 -67.233 0 0 0 -3.29655 
2260 1 18.013 -157.479 -67.233 0 0 0 -3.29655 
2261 1 15.439 -157.479 -67.233 0 0 0 -3.29655 
2262 1 16.726 -156.736 -65.132 0 0 0 -3.28316 
2263 1 14.153 -156.736 -65.132 0 0 0 -3.2831 
2264 1 15.439 -158.965 -65.132 0 0 0 -3.28311 
2297 1 19.299 -156.736 -65.132 0 0 0 -3.2831 
2299 1 18.013 -158.965 -65.132 0 0 0 -3.28311 
2904 1 18.013 -154.508 -65.132 0 0 0 -3.28311 
2905 1 15.439 -154.508 -65.132 0 0 0 -3.28311 
1724 1 24.446 -158.222 -69.334 0 0 0 -2.94077 
1725 1 21.872 -158.222 -69.334 0 0 0 -2.94077 
1728 1 21.872 -159.708 -67.233 0 0 0 -3.29651 
1767 1 24.446 -159.708 -67.233 0 0 0 -3.29651 
2256 1 20.586 -155.993 -69.334 0 0 0 -2.94084 
2290 1 25.732 -155.993 -69.334 0 0 0 -2.94084 
2291 1 23.159 -155.993 -69.334 0 0 0 -2.94077 
2292 1 24.446 -155.251 -67.233 0 0 0 -3.2965 
2293 1 21.872 -155.251 -67.233 0 0 0 -3.2965 
2294 1 23.159 -157.479 -67.233 0 0 0 -3.2966 
2295 1 20.586 -157.479 -67.233 0 0 0 -3.29654 
2296 1 21.872 -156.736 -65.132 0 0 0 -3.28311 
2298 1 20.586 -158.965 -65.132 0 0 0 -3.2831 
2337 1 25.732 -157.479 -67.233 0 0 0 -3.29654 
2339 1 24.446 -156.736 -65.132 0 0 0 -3.28311 
2340 1 25.732 -158.965 -65.132 0 0 0 -3.2831 
2341 1 23.159 -158.965 -65.132 0 0 0 -3.28316 
2942 1 23.159 -154.508 -65.132 0 0 0 -3.28316 
2943 1 20.586 -154.508 -65.132 0 0 0 -3.2831 
2987 1 25.732 -154.508 -65.132 0 0 0 -3.2831 
1762 1 29.592 -158.222 -69.334 0 0 0 -2.94076 
1763 1 27.019 -158.222 -69.334 0 0 0 -2.94082 
1766 1 27.019 -159.708 -67.233 0 0 0 -3.2965 
1808 1 32.165 -158.222 -69.334 0 0 0 -2.94073 
1810 1 32.165 -159.708 -67.233 0 0 0 -3.29649 
1811 1 29.592 -159.708 -67.233 0 0 0 -3.29655 
2332 1 30.879 -155.993 -69.334 0 0 0 -2.94075 
2333 1 28.305 -155.993 -69.334 0 0 0 -2.94079 
2334 1 29.592 -155.251 -67.233 0 0 0 -3.29655 
2335 1 27.019 -155.251 -67.233 0 0 0 -3.29649 
2336 1 28.305 -157.479 -67.233 0 0 0 -3.29655 
2338 1 27.019 -156.736 -65.132 0 0 0 -3.2831 
2380 1 32.165 -155.251 -67.233 0 0 0 -3.29649 
2381 1 30.879 -157.479 -67.233 0 0 0 -3.29653 
2382 1 32.165 -156.736 -65.132 0 0 0 -3.2831 
2383 1 29.592 -156.736 -65.132 0 0 0 -3.28316 
2384 1 30.879 -158.965 -65.132 0 0 0 -3.28309 
2385 1 28.305 -158.965 -65.132 0 0 0 -3.28311 
2986 1 28.305 -154.508 -65.132 0 0 0 -3.28311 
3031 1 30.879 -154.508 -65.132 0 0 0 -3.28309 
2198 1 1.287 -153.765 -69.334 0 0 0 -2.94076 
2200 1 6.433 -153.765 -69.334 0 0 0 -2.94076 
2201 1 3.86 -153.765 -69.334 0 0 0 -2.94082 
2822 1 3.86 -149.308 -69.334 0 0 0 -2.94082 
2823 1 1.287 -149.308 -69.334 0 0 0 -2.94076 
2824 1 2.573 -151.536 -69.334 0 0 0 -2.94083 
2825 1 0 -151.536 -69.334 0 0 0 -2.94076 
2826 1 1.287 -150.794 -67.233 0 0 0 -3.2965 
2827 1 0 -153.022 -67.233 0 0 0 -3.2966 
2829 1 6.433 -149.308 -69.334 0 0 0 -2.94076 
2831 1 5.146 -151.536 -69.334 0 0 0 -2.94079 
2832 1 6.433 -150.794 -67.233 0 0 0 -3.29655 
2833 1 3.86 -150.794 -67.233 0 0 0 -3.2965 
2834 1 5.146 -153.022 -67.233 0 0 0 -3.29655 
2835 1 2.573 -153.022 -67.233 0 0 0 -3.29654 
2836 1 3.86 -152.279 -65.132 0 0 0 -3.2831 
2837 1 1.287 -152.279 -65.132 0 0 0 -3.28311 
2851 1 6.433 -152.279 -65.132 0 0 0 -3.28316 
3532 1 2.573 -148.565 -67.233 0 0 0 -3.29654 
3533 1 0 -148.565 -67.233 0 0 0 -3.2966 
3535 1 0 -150.051 -65.132 0 0 0 -3.28316 
3543 1 5.146 -148.565 -67.233 0 0 0 -3.29655 
3546 1 5.146 -150.051 -65.132 0 0 0 -3.28311 
3547 1 2.573 -150.051 -65.132 0 0 0 -3.2831 
2210 1 11.58 -153.765 -69.334 0 0 0 -2.94077 
2211 1 9.006 -153.765 -69.334 0 0 0 -2.94075 
2828 1 9.006 -149.308 -69.334 0 0 0 -2.94075 
2830 1 7.72 -151.536 -69.334 0 0 0 -2.94076 
2843 1 11.58 -149.308 -69.334 0 0 0 -2.94077 
2844 1 12.866 -151.536 -69.334 0 0 0 -2.94084 