LAMMPS (3 Mar 2020)
#Input Energy Minimization

units		metal
dimension	3
boundary	p p p
atom_style	full


#Read in metal Atoms
read_data	Cu_Sedge2_30_30_30 group allatoms
  orthogonal box = (0 -189.421 -100) to (33.4521 189.421 100)
  1 by 4 by 2 MPI processor grid
  reading atoms ...
  56342 atoms
  0 = max # of 1-2 neighbors
  0 = max # of 1-3 neighbors
  0 = max # of 1-4 neighbors
  1 = max # of special neighbors
  special bonds CPU = 0.00535 secs
  read_data CPU = 0.502308 secs
#Read in Top Atoms
read_data	c_eject_up add append group graphene
  orthogonal box = (0 -189.421 -100) to (33.4521 189.421 100)
  1 by 4 by 2 MPI processor grid
  reading atoms ...
  2272 atoms
  0 = max # of 1-2 neighbors
  0 = max # of 1-3 neighbors
  0 = max # of 1-4 neighbors
  1 = max # of special neighbors
  special bonds CPU = 0.004525 secs
  read_data CPU = 0.407035 secs
#Read in bottom Atoms
#read_data	c_sqflake_dn0 add append group 3
#Read in H Top Atoms
#read_data	hedgestr_suarmAc_30 add append group 4
#Read in H bottom Atoms
#read_data	hedgestr_sdarmAc_30 add append group 5


lattice fcc 3.859
Lattice spacing in x,y,z = 3.859 3.859 3.859
region interior block -0.1 10.0 -21.0 18.1 -9.1 -6.99 units lattice
region interior1 block -0.1 10.0 -49.2 -41 -1.0 2.0 units lattice
region interior2 block -0.1 10.0 40.0 50.0 -1.0 2.0 units lattice
region interior3 block -0.1 10.0 23.8 29.3 -5.0 -1.0 units lattice
region interior4 block -0.1 10.0 -33.0 -27.0 -5.0 -1.0 units lattice
region bottom   block -200.0 200.0 -200.0 200.0 -20.0 -17.958 units lattice
region upper   block -200.0 200.0 -200.0 200.0 -17.958 20 units lattice

#displace_atoms graphene move 0 -4.0 0.5 units lattice
#displace_atoms graphene rotate 0 1.886 3.513 1 0 0 4.0 units lattice


group 1 type 1
56342 atoms in group 1
group 2 type 2
2272 atoms in group 2
group inner region interior
3768 atoms in group inner
group inner1 region interior1
377 atoms in group inner1
group inner2 region interior2
403 atoms in group inner2
group inner3 region interior3
546 atoms in group inner3
group inner4 region interior4
455 atoms in group inner4
group bott region bottom
2210 atoms in group bott
group top region upper
56404 atoms in group top
group 3 intersect top 1
54132 atoms in group 3


# ------Force Fields --------

#pair_style eam/fs
#pair_coeff * * Cu1.eam.fs Cu

neighbor		1.0 bin
neigh_modify delay 10 every 10 check yes page 5000000 one 500000

# ------Force Fields --------
# Interaction potential for carbon atoms
######################## Potential defition ########################
pair_style  hybrid eam/fs airebo 3.0 1 0 lj/cut 10
####################################################################
pair_coeff * * eam/fs  Cu1.eam.fs Cu NULL
pair_coeff * * airebo  CH.airebo   NULL C   # chemical
Reading potential file CH.airebo with DATE: 2011-10-25
#pair_coeff 1 3 lj/cut 1.0e-1 3.2 10 # long-range
pair_coeff 1 2 lj/cut 1.0e-2 3.2 10 # long-range
####################################################################

#Delete overlapping atoms
delete_atoms overlap 0.4 all all
Neighbor list info ...
  update every 10 steps, delay 10 steps, check yes
  max neighbors/atom: 500000, page size: 5000000
  master list distance cutoff = 11.2
  ghost atom cutoff = 11.2
  binsize = 5.6, bins = 6 68 36
  6 neighbor lists, perpetual/occasional/extra = 5 1 0
  (1) command delete_atoms, occasional, copy from (6)
      attributes: full, newton on
      pair build: copy
      stencil: none
      bin: none
  (2) pair eam/fs, perpetual, skip from (5)
      attributes: half, newton on
      pair build: skip
      stencil: none
      bin: none
  (3) pair airebo, perpetual, skip from (6)
      attributes: full, newton on, ghost
      pair build: skip/ghost
      stencil: none
      bin: none
  (4) pair lj/cut, perpetual, skip from (5)
      attributes: half, newton on
      pair build: skip
      stencil: none
      bin: none
  (5) neighbor class addition, perpetual
      attributes: half, newton on
      pair build: half/bin/newton
      stencil: half/bin/3d/newton
      bin: standard
  (6) neighbor class addition, perpetual
      attributes: full, newton on, ghost
      pair build: full/bin/ghost
      stencil: full/ghost/bin/3d
      bin: standard
WARNING: Ignoring 'compress yes' for molecular system (../delete_atoms.cpp:125)
Deleted 0 atoms, new total = 58614





fix 1 bott setforce 0. 0. 0.
#fix 2 2 setforce 0. 0. 0.
#fix 3 3 setforce 0. 0. 0.
#fix 4 4 setforce 0. 0. 0.
#fix 5 5 setforce 0. 0. 0.


# ---------- Simulation Process ---------
# Initial velocities at a given temperature
#velocity top create 1200 12345 mom yes rot no
#fix 2 top nvt temp 3500.0 3500.0 1000000.0
fix 2 top nve
fix 3 top langevin 1365.0 1365.0 10.0 323256
#velocity bott zero linear

# Timestep to make the integration of the motion equation
timestep		0.001

######################################################################
#Compute Energy per atom in the interior
#variable inner_nog equal count(2,interior)
#variable inner_nocu equal count(1,interior)
#variable inner_no equal count(inner)
#variable inner1_nog equal count(2,interior1)
#variable inner1_nocu equal count(1,interior1)
#variable inner1_no equal count(inner1)
compute atomEnergy all pe/atom
#compute stratom all stress/atom NULL
compute innerEnergy inner reduce sum c_atomEnergy
#compute Tinner inner temp/partial 1 1 1
#compute Tgr 2 temp/partial 1 1 1
compute Tcu 3 temp/partial 1 1 1
compute Tgr 2 temp/partial 1 1 1
compute T1 inner temp/partial 1 1 1
compute T2 inner1 temp/partial 1 1 1
compute T3 inner3 temp/partial 1 1 1
compute T4 inner4 temp/partial 1 1 1
compute T5 inner2 temp/partial 1 1 1
#compute atomEnergy1 inner1 pe/atom
#compute inner1Energy inner1 reduce sum c_atomEnergy
#compute LJ interaction
compute 1 all pair lj/cut epair
compute 2 2 pair airebo
compute 3 1 pair eam/fs
compute Tabove top temp/partial 1 1 1

# Parameters to print out on the screen and log.lammps file
thermo_style	custom step c_Tabove c_1 c_2 c_3  ke c_Tcu c_Tgr  c_T1 c_T2 c_T3 c_T4 c_T5
thermo			1000
#thermo_modify lost ignore flush yes

# Saving atomic coordinates
#dump			1 all xyz 10 Cu_*.xyz
#dump_modify		1 element Cu Cu

dump			2 all custom 1000 corners_1350_*.xyz id type x y z vx vy vz c_atomEnergy #c_stratom[1] c_stratom[2] c_stratom[3] c_stratom[4] c_stratom[5] c_stratom[6]
#dump_modify		2 element C C


# Energy minimization parameters
#min_style		fire
#minimize		${etol} ${ftol} 100000 10000
#minimize		1.0e-15 1.0e-15 100000 10000

#fix 1 all box/relax iso 0.0 vmax 0.001

min_style		cg
minimize		1.0e-19 1.0e-20 100000 10000
WARNING: Using 'neigh_modify every 1 delay 0 check yes' setting during minimization (../min.cpp:190)
Neighbor list info ...
  update every 1 steps, delay 0 steps, check yes
  max neighbors/atom: 500000, page size: 5000000
  master list distance cutoff = 11.2
  ghost atom cutoff = 11.2
  binsize = 5.6, bins = 6 68 36
  5 neighbor lists, perpetual/occasional/extra = 5 0 0
  (1) pair eam/fs, perpetual, skip from (4)
      attributes: half, newton on
      pair build: skip
      stencil: none
      bin: none
  (2) pair airebo, perpetual, skip from (5)
      attributes: full, newton on, ghost
      pair build: skip/ghost
      stencil: none
      bin: none
  (3) pair lj/cut, perpetual, skip from (4)
      attributes: half, newton on
      pair build: skip
      stencil: none
      bin: none
  (4) neighbor class addition, perpetual
      attributes: half, newton on
      pair build: half/bin/newton
      stencil: half/bin/3d/newton
      bin: standard
  (5) neighbor class addition, perpetual
      attributes: full, newton on, ghost
      pair build: full/bin/ghost
      stencil: full/ghost/bin/3d
      bin: standard
Per MPI rank memory allocation (min/avg/max) = 125.7 | 133.6 | 146 Mbytes
Step c_Tabove c_1 c_2 c_3 KinEng c_Tcu c_Tgr c_T1 c_T2 c_T3 c_T4 c_T5 
       0            0   -71.555623   -17689.363   -183432.06            0            0            0            0            0            0            0            0 
     357            0    -190.7693   -17690.443   -183460.37            0            0            0            0            0            0            0            0 
Loop time of 48.4758 on 8 procs for 357 steps with 58614 atoms

44.1% CPU use with 8 MPI tasks x no OpenMP threads

Minimization stats:
  Stopping criterion = linesearch alpha is zero
  Energy initial, next-to-last, final = 
        -201192.979998     -201341.587051     -201341.587051
  Force two-norm initial, final = 20.2548 0.105413
  Force max component initial, final = 1.67124 0.012253
  Final line search alpha, max atom move = 9.53674e-07 1.16854e-08
  Iterations, force evaluations = 357 752

MPI task timing breakdown:
Section |  min time  |  avg time  |  max time  |%varavg| %total
---------------------------------------------------------------
Pair    | 0.011587   | 27.949     | 45.376     | 306.5 | 57.66
Bond    | 0.00075089 | 0.0013046  | 0.0023025  |   1.3 |  0.00
Neigh   | 4.09e-05   | 0.52805    | 1.2756     |  71.4 |  1.09
Comm    | 0.0088491  | 8.7017     | 28.918     | 383.9 | 17.95
Output  | 0          | 0          | 0          |   0.0 |  0.00
Modify  | 0.0015644  | 0.0088849  | 0.01701    |   7.5 |  0.02
Other   |            | 11.29      |            |       | 23.28

Nlocal:    7326.75 ave 18235 max 0 min
Histogram: 4 0 0 0 0 0 2 0 0 2
Nghost:    8787 ave 17995 max 0 min
Histogram: 2 0 1 1 0 0 1 1 0 2
Neighs:    447611 ave 1.17873e+06 max 0 min
Histogram: 4 0 0 0 0 2 0 0 0 2
FullNghs:  44685.5 ave 198072 max 0 min
Histogram: 6 0 0 0 0 0 0 1 0 1

Total # of neighbors = 3580889
Ave neighs/atom = 61.0927
Ave special neighs/atom = 0
Neighbor list builds = 3
Dangerous builds = 0

velocity top create 2900 851610 mom yes rot no

run 200000
Neighbor list info ...
  update every 10 steps, delay 10 steps, check yes
  max neighbors/atom: 500000, page size: 5000000
  master list distance cutoff = 11.2
  ghost atom cutoff = 11.2
  binsize = 5.6, bins = 6 68 36
  5 neighbor lists, perpetual/occasional/extra = 5 0 0
  (1) pair eam/fs, perpetual, skip from (4)
      attributes: half, newton on
      pair build: skip
      stencil: none
      bin: none
  (2) pair airebo, perpetual, skip from (5)
      attributes: full, newton on, ghost
      pair build: skip/ghost
      stencil: none
      bin: none
  (3) pair lj/cut, perpetual, skip from (4)
      attributes: half, newton on
      pair build: skip
      stencil: none
      bin: none
  (4) neighbor class addition, perpetual
      attributes: half, newton on
      pair build: half/bin/newton
      stencil: half/bin/3d/newton
      bin: standard
  (5) neighbor class addition, perpetual
      attributes: full, newton on, ghost
      pair build: full/bin/ghost
      stencil: full/ghost/bin/3d
      bin: standard
Per MPI rank memory allocation (min/avg/max) = 124.7 | 131.7 | 142.6 Mbytes
Step c_Tabove c_1 c_2 c_3 KinEng c_Tcu c_Tgr c_T1 c_T2 c_T3 c_T4 c_T5 
     357         2900    -190.7693   -17690.443   -183460.37    21142.914    2900.3359    2893.2715    2898.7706    2856.5507    2785.1553    2893.1266    2937.0849 
    1000    1355.3193   -163.03916   -17271.661    -172622.6    9881.1723    1352.0755    1433.2346    1404.9585    1275.0915    1246.2012     1363.262    1350.6359 
    2000    1322.3241   -162.33783   -17285.054   -172340.51    9640.6156    1316.7671    1455.3622    1383.2441    1368.7143    1413.8635    1355.8054    1367.1399 
    3000    1311.4244   -164.68434   -17266.439    -172202.7    9561.1496    1308.2147    1388.5089    1390.1908    1205.7478    1290.8923    1273.3726    1389.0207 
    4000    1338.2302   -163.84054   -17286.852   -172325.85    9756.5814    1334.3181    1432.0683    1415.5874    1317.8992    1335.6659    1395.0502    1377.0318 
    5000    1352.5345   -163.87146   -17283.944   -172423.77    9860.8688    1349.4646    1426.3027    1390.6048    1287.6081     1388.609    1295.7057    1329.7965 
    6000    1348.9057   -161.92656   -17285.789   -172341.65    9834.4131    1346.5998     1404.463    1378.1237    1343.6982    1302.3615    1338.4154    1346.4894 
    7000    1352.8424   -164.68076   -17295.366    -172352.2    9863.1138    1349.5123    1432.8126    1416.1537     1294.031    1331.3087     1277.229    1296.1195 
    8000    1345.2853   -160.65475   -17285.302   -172294.88    9808.0178    1343.1609    1396.5142    1389.1443    1461.7653     1301.572    1348.0262    1321.3638 
    9000    1329.1958   -161.84945   -17289.164   -172107.75    9690.7149    1326.6582     1390.268     1394.399    1394.4036    1345.3149    1363.0388    1285.3301 
   10000    1344.2249   -162.19647   -17289.465   -172166.57    9800.2867    1342.0879    1395.7538    1392.5361    1257.6972    1284.2062    1333.8247    1269.5812 
   11000    1358.6699   -160.95713   -17295.679   -172230.85    9905.6003    1356.7894    1404.0915    1372.6592    1295.8281    1293.2778     1354.446    1383.1499 
   12000    1351.1721   -160.92895   -17279.414   -172185.67    9850.9362    1350.2128    1374.6323    1370.2851    1546.0442    1322.3382     1338.287     1342.238 
   13000    1348.4941   -160.86187   -17285.165   -172175.36    9831.4116    1346.4302    1398.2813    1381.9498    1362.2363    1281.3888    1333.5142    1381.9427 
   14000    1351.8478   -163.60912   -17292.311   -172149.68    9855.8628    1349.9723    1397.1467    1378.6935     1427.127    1355.8712    1293.5667    1408.1903 
   15000    1350.2966   -162.57957   -17287.142   -172121.85    9844.5532    1348.9311     1383.438    1360.2587    1420.9637    1383.4239    1422.7565    1307.8054 
   16000    1346.4785   -160.80224    -17282.15   -172102.51    9816.7166    1344.4354    1395.7683    1376.6079    1345.7314    1398.6959    1404.7609     1375.319 
   17000    1355.3148   -165.03709   -17284.736   -172117.39    9881.1391     1354.052    1386.0113    1372.9832    1251.0577     1359.649       1403.3    1317.5533 
   18000    1359.4682   -162.23387   -17281.756   -172153.77    9911.4201    1358.7172    1377.9673    1341.7164    1346.0286     1321.497    1292.6806    1318.3384 
   19000     1357.085   -163.63808   -17295.106   -172096.22    9894.0452    1353.8531    1434.7162    1408.0731    1401.5911    1352.9455     1365.762    1398.6513 
   20000    1344.7723   -161.09016   -17280.092   -171980.38    9804.2775    1342.9303    1389.2699    1374.9832    1362.1172    1331.5897    1386.4224    1408.5537 
   21000    1354.1904   -163.04022   -17289.542   -172033.88    9872.9415    1351.4622    1419.8147    1411.4492    1369.7949    1415.5158    1238.9279    1430.0914 
   22000    1351.8275   -161.86791   -17286.352   -172012.74    9855.7149    1349.3454    1411.5872    1381.8312    1412.1375    1354.8846    1285.3475    1406.9133 
   23000    1352.5289    -161.4319   -17295.512   -172034.01    9860.8284    1349.2874    1430.3887    1396.1217    1386.7797    1395.2898    1338.7942    1278.8323 
   24000     1358.591   -161.94318   -17282.859   -172103.25    9905.0252    1358.0255    1372.6694    1348.4528    1397.1273    1361.4195    1352.7267    1334.8165 
   25000    1348.4094   -161.85233   -17286.618    -172010.7    9830.7945    1346.5392    1393.5809    1388.5308    1306.3254    1307.2408    1305.5528    1400.8249 
   26000    1358.6739   -164.05148   -17288.212   -172006.87    9905.6291    1358.2576     1369.193    1363.9856    1308.4665     1362.426    1348.7171    1346.3873 
   27000    1359.3946   -162.04842   -17292.682   -171979.91     9910.884     1358.396    1383.7956    1388.3617    1320.4546    1325.0563    1380.1212    1393.9322 
   28000    1359.4357   -160.67535    -17295.75   -171971.15    9911.1834    1357.1539     1414.422    1403.3071    1365.1892    1361.8604    1326.0119    1354.6198 
   29000    1368.1735   -160.83675   -17288.318   -172033.07    9974.8879    1367.5647    1383.2867    1380.1162    1365.4741    1266.3571    1335.1988    1389.0775 
   30000    1361.4114   -163.95112    -17295.96   -171960.79    9925.5877    1359.9609    1396.5847    1382.6951    1384.1452    1362.2615    1342.6241    1360.0867 
   31000    1366.6229   -162.53965   -17295.357   -171951.65    9963.5828    1364.9342     1407.475    1393.7042    1442.8345    1373.5832    1348.5343    1382.1668 
   32000    1366.3341   -162.49873   -17295.874   -171953.45    9961.4771     1365.872     1377.949    1363.3372    1413.9168    1417.5813    1356.5102    1380.0666 
   33000    1362.1591   -164.33936   -17290.368   -171947.42    9931.0387    1361.5806    1376.5479    1378.2681    1380.0803    1228.8715    1392.1221    1441.1109 
   34000    1362.2668    -162.2301   -17294.437   -171950.04    9931.8239    1360.8518    1396.5939    1357.8455    1367.7739    1352.2668    1442.6934    1362.7053 
   35000    1358.1309   -162.99228   -17292.591   -171948.22    9901.6705    1357.4859    1374.1038    1374.3568    1341.5763    1410.7339    1430.1133    1290.1955 
   36000     1357.886    -162.6808   -17301.839   -171930.32    9899.8849    1356.6716    1387.4295    1375.7866    1364.5959    1386.2339    1345.3566    1329.2608 
   37000    1355.2781   -162.02821   -17291.751      -171920    9880.8718     1354.237    1380.6914    1343.4459    1384.2192    1333.5736    1322.7846    1383.6906 
   38000     1364.736   -164.10552   -17296.304   -171956.39    9949.8263    1364.0114    1382.6096    1366.4014    1293.3239    1401.5232    1380.8904    1282.2821 
   39000    1362.0556    -161.6278    -17290.23   -171934.61    9930.2844    1362.5152    1351.7009    1381.0875    1310.3948    1409.8016    1360.3247    1349.9899 
   40000    1369.1537   -162.14497   -17301.486   -172001.75    9982.0339    1368.4401    1386.7651    1386.3767     1432.333    1412.8918    1337.7944    1286.3961 
   41000    1356.3889   -163.15833    -17304.31   -171942.77    9888.9699    1355.1847    1385.6888    1366.4913    1373.3569    1413.6221    1383.4058    1465.2308 
   42000    1353.4795   -162.19421   -17307.117   -171951.29    9867.7591    1351.8871    1392.0329    1381.6576    1367.4083    1478.0683     1378.123    1407.5536 
   43000    1352.9829   -162.80774   -17295.444   -171924.03     9864.138    1353.1575    1349.4155    1344.6675    1295.7782    1403.9364    1426.2004    1422.6373 
   44000    1354.5701   -160.85148   -17297.952   -171898.59    9875.7099    1354.2238    1363.4209    1368.0839    1262.8885    1406.0423    1333.9826    1331.7698 
   45000    1361.2139   -162.70473   -17292.588   -171969.94    9924.1476     1361.749    1349.0577    1337.5766    1351.2316    1313.9579    1408.6889    1294.9976 
   46000    1348.1532   -161.57808   -17294.928    -171891.4    9828.9268    1346.9454    1377.5354    1365.7371    1340.1304    1254.0722    1349.9799    1277.5434 
   47000    1363.3567   -163.69789   -17302.699   -171951.27    9939.7704     1361.835    1400.2295    1370.6018    1332.8914     1335.825     1381.831    1339.0854 
   48000    1359.7369   -162.13813   -17290.347   -171917.81    9913.3791    1359.5375     1365.088     1361.379    1325.8771    1329.6989    1328.9203    1339.2957 
   49000    1353.2238   -162.99679   -17293.893   -171854.47    9865.8945    1352.4063    1373.3058    1369.5665    1367.8614    1268.7097    1225.4525    1362.0864 
   50000    1362.3849   -159.93017   -17298.199   -171901.59    9932.6848    1361.1999    1391.2294    1366.2493     1368.169    1371.4865    1355.1575     1358.519 
   51000     1361.293   -160.72038   -17302.596   -171865.81    9924.7243    1359.3826    1407.4272    1390.8314    1395.4363    1292.9815    1285.5907    1262.4644 
   52000    1365.4467   -161.68594   -17304.547   -171899.43    9955.0073    1363.2915     1417.418    1395.0459    1281.5215    1368.4232    1291.8933    1412.4369 
   53000    1359.8276   -163.01249   -17298.022   -171877.11    9914.0408    1359.7167    1363.0693    1362.9271    1362.5639    1340.2084    1299.4289    1361.6827 
   54000    1360.7099   -162.66411   -17290.559   -171838.51    9920.4734    1361.5413    1341.4919    1341.3816    1441.6254    1333.7726    1401.3302    1339.8857 
   55000    1368.4674   -162.65325   -17290.177   -171856.74    9977.0308    1370.2292    1327.0772    1330.8424    1395.0789    1380.4977    1442.0071    1358.5998 
   56000    1361.3208    -160.4645   -17308.269   -171807.14    9924.9269    1359.7284    1399.8748    1392.5123    1373.5694    1326.0219    1302.0352    1370.4537 
   57000    1366.8178   -161.89011   -17298.522   -171863.72    9965.0037    1366.9016    1365.4212    1365.9192    1329.7707     1346.384    1360.4198    1358.7285 
   58000    1360.3921   -162.68549   -17296.658    -171811.9    9918.1565    1359.9221    1372.1954    1353.1216    1297.1987    1292.4289    1228.3716    1383.0341 
   59000    1364.3085   -162.34056   -17299.067   -171804.51    9946.7091    1363.7132    1379.0982    1384.9224     1346.877    1369.9996      1382.92    1248.0838 
   60000    1359.6713   -162.88604   -17296.081   -171768.93    9912.9008    1359.8052    1357.0782    1382.4832    1304.0267     1367.021    1326.5387    1355.3771 
   61000    1364.3298   -163.16093   -17296.054   -171803.99    9946.8646    1364.2512    1366.8028    1391.1994    1244.2653     1347.064    1245.4224    1374.5569 
   62000    1359.2316   -159.84119   -17292.315   -171780.69    9909.6957    1358.8178    1369.6938    1374.0842     1273.572    1422.3406    1322.6079    1270.9857 
   63000    1360.0762   -162.36725   -17294.194    -171810.6     9915.853    1358.6995    1393.4891    1378.2853    1350.3924    1393.4923    1428.2403    1284.1855 
   64000    1364.9305   -160.45835   -17295.041   -171873.48    9951.2441    1363.3149    1404.0404    1391.6668    1299.0459    1304.4232    1357.8762    1363.1557 
   65000    1361.1099   -162.09349   -17292.117   -171847.77    9923.3895    1360.4434     1377.597    1375.5556    1403.7881    1425.0051    1380.9605     1331.229 
   66000    1355.5588   -162.97894   -17295.951   -171820.09    9882.9185    1354.6717    1377.3005    1355.8675    1308.6821    1315.7571    1316.9951    1237.6817 
   67000    1369.3279    -162.6348    -17307.18   -171887.59    9983.3039    1367.9315    1403.2139    1365.0185    1350.4314    1391.0184    1400.9167    1412.8888 
   68000    1360.9173   -163.51283    -17289.73   -171847.74    9921.9851     1361.519     1347.175    1347.0865    1322.7589    1355.0465    1353.1501    1429.0551 
   69000    1368.8446   -161.46835   -17302.975    -171869.7    9979.7807    1368.2922    1382.6152    1384.6523    1453.8248    1389.4062    1370.4882    1429.7863 
   70000    1358.3848   -161.46376   -17295.996   -171798.43    9903.5213    1358.6288    1353.1663      1370.87    1338.9743    1394.0281    1369.9107    1383.9239 
   71000    1359.1893   -161.90278   -17303.419   -171807.69    9909.3871    1359.2113    1359.2633    1346.0088    1332.7383     1356.852     1330.722    1375.0916 
   72000    1371.1072   -162.34754   -17299.518   -171837.24    9996.2765    1371.0583    1372.8767    1370.9964    1386.6797    1326.9619    1355.7805    1417.6497 
   73000    1359.1241   -161.15677   -17283.004   -171771.78    9908.9117    1360.6324    1323.7713    1331.2945    1367.2745    1399.7637    1333.3064     1284.024 
   74000    1360.3588   -161.99114   -17298.094   -171763.15    9917.9137    1359.3092    1385.9759    1393.1124    1353.5414    1387.3771    1353.5375    1364.4085 
   75000    1365.4102   -164.08698   -17301.737   -171770.86    9954.7415    1363.8192    1403.9341    1393.7033    1417.6137    1360.3165    1264.0726    1345.6234 
   76000    1369.8616   -162.84568   -17296.738   -171792.93    9987.1953    1369.7338    1373.5115    1367.7982     1256.011    1396.0769    1329.1578    1342.1432 
   77000    1360.2714   -161.97137   -17296.995   -171733.06    9917.2762    1359.4097    1381.4094    1347.2173    1390.2509    1357.5281    1326.4615    1302.9856 
   78000    1359.4632   -159.69416   -17287.992   -171741.07    9911.3839    1360.1146    1344.5342    1359.0252     1396.989    1338.6812    1293.6816    1384.4678 
   79000    1360.9697   -161.42679   -17297.521   -171740.61    9922.3673    1360.7138    1367.6676    1359.7337    1290.1732    1402.6305    1345.0467    1395.6946 
   80000    1355.6235   -160.81473   -17299.193    -171738.9    9883.3897    1356.4398    1336.7624     1339.665    1333.1984    1311.8791    1389.6902     1447.072 
   81000    1360.6433    -162.8147    -17301.69   -171766.95    9919.9877     1361.113    1350.0477    1360.1679    1348.1927    1315.3727    1354.3376     1308.977 
   82000    1359.1164   -162.10617   -17304.682   -171723.05    9908.8555    1358.2453     1380.478    1382.3112    1458.0737    1312.5359    1327.4862    1361.9173 
   83000    1361.3006   -163.90233   -17302.283   -171755.48    9924.7801    1360.4696    1381.7086    1400.5832    1308.7772    1407.7854    1440.6695    1445.5427 
   84000     1366.035   -162.30314   -17289.209   -171777.43    9959.2964     1366.542     1354.552    1371.5635    1333.1249    1444.7137    1420.8223    1401.6852 
   85000    1356.5779   -158.32996   -17298.565   -171710.27    9890.3482     1356.173    1366.8271     1348.349    1371.3163    1277.3824    1302.9556    1440.3324 
   86000    1359.5143   -162.94072   -17295.205   -171702.25    9911.7567    1359.0752    1370.5802    1393.6048    1399.2861    1323.7578    1223.4703    1472.8462 
   87000    1362.9066   -162.08785   -17291.325   -171730.68    9936.4882    1361.9708     1385.812    1381.5427    1374.6343    1354.5662    1313.5919    1364.6322 
   88000     1368.825   -162.48954   -17292.439   -171760.29    9979.6376    1368.8374    1369.1321    1385.7591    1324.0086    1306.4558    1301.5497    1437.3409 
   89000    1355.5987   -161.68002   -17293.451   -171671.73    9883.2089    1354.6521    1378.7568    1366.7038    1356.7679    1335.6717    1394.6256    1422.9353 
   90000    1358.9507   -161.66094   -17294.027   -171704.79    9907.6478    1357.7939    1387.1228     1370.073    1407.4982    1350.5155    1381.7889    1448.0385 
   91000    1360.3458   -160.73393   -17287.008   -171733.38    9917.8188    1359.8552    1372.6398    1366.1856    1370.8676    1356.0026    1442.4938    1388.3111 
   92000    1360.8758   -162.67138   -17286.449   -171767.26     9921.683    1360.8235    1362.7218      1329.82    1439.4973    1249.7604     1332.596     1379.288 
   93000    1361.4178   -162.86128   -17298.315   -171765.61    9925.6342    1359.6242    1404.7696    1368.3346    1312.5566    1355.2624    1329.1745     1494.205 
   94000    1365.2008   -162.02241   -17291.833   -171804.89    9953.2148    1364.6342    1379.3063    1356.6411    1421.1963    1466.3004    1306.6993    1301.9841 
   95000    1362.7385   -162.00364    -17293.37   -171762.28    9935.2631    1361.1403    1401.4331    1368.5203    1339.6836    1403.9783     1340.331    1390.6764 
   96000    1365.7566   -162.15013   -17288.997   -171754.11    9957.2671    1365.1626    1380.5173    1389.0637    1397.2424    1330.6833    1339.5043    1409.1983 
   97000    1370.3378   -163.81446   -17296.236   -171801.54    9990.6667    1369.6115    1388.2522    1367.3621    1373.8833    1397.9228    1337.4358    1376.6085 
   98000    1363.7254   -164.18587   -17296.061   -171748.76    9942.4579    1362.7341    1387.9542    1370.3974    1356.2641    1395.1822    1311.1557    1347.4563 
   99000    1361.7411   -162.90423   -17305.584    -171725.7     9927.991    1360.2491    1397.9028    1360.5654    1367.6721    1368.2615     1364.281    1390.6783 
  100000    1357.2237   -159.18786   -17291.217   -171748.61    9895.0563    1358.1233    1336.3774    1343.1126    1345.7251    1326.1225    1292.0986    1480.2495 
  101000    1361.7148   -161.48954     -17297.9   -171782.78    9927.7993     1361.728    1361.9993    1352.5185     1379.403    1367.3026    1351.9874    1313.0677 
  102000     1358.215   -162.81435    -17309.15   -171723.44    9902.2839    1359.1279     1337.053     1346.431    1386.3321    1343.1585    1343.8224    1335.2893 
  103000    1367.4755   -162.20399   -17312.205   -171767.78    9969.7992     1368.599    1341.2997    1342.0315    1434.8964    1367.5714    1402.6427     1394.604 
  104000    1358.8654   -164.27947   -17307.266   -171677.91    9907.0255    1360.6008    1318.0989    1344.7822    1298.2691    1297.4375    1294.6466    1257.3083 
  105000    1356.8772   -162.51054   -17311.685   -171672.89    9892.5305    1358.3147    1323.2114     1332.727    1306.0909    1388.3007     1381.069    1315.4512 
  106000    1367.0563   -161.46174   -17304.693   -171737.32    9966.7425    1368.4407    1334.6593    1323.3334    1317.7738    1280.1083    1381.5323    1409.3603 
  107000    1361.6973   -164.84813   -17303.989   -171677.02    9927.6717    1361.4892    1367.2561    1364.7115    1414.9302     1274.432    1403.5488    1441.0166 
  108000    1364.4084   -161.69989   -17299.016    -171692.3    9947.4374    1364.1431    1371.3321    1361.5437    1320.9289    1392.2135    1362.1077    1399.1722 
  109000    1368.6941   -162.23383   -17298.951   -171731.19    9978.6832    1368.5907    1371.7613    1386.1499    1412.4989    1311.8086    1392.7816    1325.7828 
  110000    1362.6697   -160.89971   -17309.918   -171692.48    9934.7614    1360.5185    1414.5451    1420.6651    1319.4742    1327.7816    1392.7109    1295.1879 
  111000     1359.877   -161.98165   -17305.297   -171652.69    9914.4007    1358.7531    1387.2641    1389.2645    1322.5321    1300.2073    1341.9317    1367.1491 
  112000    1360.3095   -163.01354   -17296.184   -171658.22    9917.5537    1360.3295    1360.4303     1359.101    1450.2951    1515.4105    1325.0373    1337.3828 
  113000    1359.5876   -162.47251   -17292.557   -171635.63    9912.2911    1360.2932    1343.3685    1307.1398    1328.9688    1269.0486    1406.0211    1263.8598 
  114000    1360.8171   -164.53481   -17302.458   -171616.18    9921.2544     1360.939    1358.5109    1371.4218    1317.4095     1386.245    1298.3156    1296.3528 
  115000    1369.1508   -163.41525   -17302.413   -171685.68    9982.0132    1369.4938    1361.5792     1377.447    1344.5893    1435.0654    1379.3277    1412.2435 
  116000    1363.9783   -161.77374   -17294.798   -171650.35     9944.302    1364.2343    1358.4781    1365.8156    1322.8988    1441.5395    1388.7187    1396.2351 
  117000    1355.5447   -161.92839   -17299.582   -171601.25    9882.8152    1355.8769    1348.2228    1362.6565    1421.4566    1410.3995    1431.3974    1316.5059 
  118000    1359.3354   -162.96168   -17301.595   -171636.76    9910.4524    1360.0032    1344.0161    1361.8003    1373.3229    1429.7086    1339.2655    1440.9282 
  119000     1360.376   -163.83073   -17301.599   -171656.47     9918.039    1361.8206    1326.5433    1328.9124    1397.1841     1411.216    1451.0161    1312.8503 
  120000    1361.0716   -163.01581   -17307.934   -171637.72    9923.1104    1360.6478    1371.7737    1342.7781    1431.4967    1364.1662    1429.3218    1281.3642 
  121000    1355.6305    -162.1511   -17302.149   -171638.79    9883.4411    1355.8413    1351.2031    1322.5137    1361.7744    1349.6185     1337.825    1383.1846 
  122000    1359.2859   -163.95065   -17301.463   -171660.47    9910.0915    1358.6531    1374.9685    1357.8594     1404.369     1364.959    1323.3403    1260.9831 
  123000    1360.3919   -162.20372   -17305.712    -171666.9    9918.1548    1359.6424    1378.8564    1362.0309    1346.2013    1352.4959    1369.4066    1376.4026 
  124000    1360.0982   -162.99554   -17296.415   -171657.15    9916.0134    1360.1143    1360.3138    1356.7855    1315.2838    1293.3729    1368.7837    1263.0929 
  125000    1355.1222    -163.8082   -17297.269   -171656.74    9879.7354      1355.42    1348.6207    1351.8985    1336.0497    1323.5047    1348.3021     1314.009 
  126000    1360.7958   -161.48508   -17307.822   -171705.15    9921.0991     1360.506    1368.3023    1355.5445    1475.8827    1381.7494    1387.4423    1237.2328 
  127000    1361.5358   -161.56213   -17297.691   -171667.46    9926.4947    1362.5196    1338.6867    1359.1873    1413.4808    1348.2666    1373.5029    1317.1341 
  128000    1360.1987   -163.04413   -17294.748   -171674.69    9916.7462    1361.6736    1325.6428     1353.161    1408.6812    1350.3648    1320.4527    1315.8824 
  129000    1365.6629   -162.19785   -17311.565   -171711.38    9956.5839      1365.25    1376.1063    1383.4344    1506.7046    1338.5584    1371.2989    1405.1511 
  130000    1359.4697   -163.40876    -17299.99   -171690.27    9911.4311    1361.3766    1314.6159    1339.5484    1353.6281    1388.3628    1348.3457    1416.5072 
  131000    1364.7586   -162.72286   -17311.093   -171706.81    9949.9908    1365.4858    1348.0248    1370.8406    1320.0321    1361.9548    1426.5712    1371.1741 
  132000    1365.8388   -163.55762   -17321.857   -171732.26     9957.866    1365.7492    1368.5754    1373.7126    1245.6375    1306.1203    1469.7152    1350.0338 
  133000    1356.1685   -164.62484   -17306.976   -171634.86    9887.3637    1356.8794    1339.8223    1355.7946    1362.7598    1332.5268    1255.2053    1293.2835 
  134000    1356.9873   -162.67002   -17304.467   -171640.89     9893.333    1358.3228    1325.7518    1347.2913     1319.669    1305.1852    1270.0388    1299.9475 
  135000    1356.1421   -162.51814   -17295.341    -171646.2    9887.1709    1357.5996    1321.9977    1352.3446    1366.5018    1351.1259    1380.7982    1288.7723 
  136000    1364.4528   -161.01199   -17301.667   -171679.75    9947.7611    1365.9421    1329.5539    1349.5935     1329.263     1328.064    1464.3373    1459.8825 
  137000    1363.1191   -161.28489   -17301.243   -171664.12    9938.0377    1364.2316    1337.2007    1347.6329    1311.2254    1369.5801     1330.015    1366.5267 
  138000    1356.5063   -162.15941   -17308.378   -171604.67    9889.8262    1356.4739    1357.8753    1364.9274    1310.6523    1315.1892    1347.9534    1375.5299 
  139000    1360.4063   -163.74196   -17308.255   -171647.05    9918.2601    1361.4436     1336.281    1342.4152    1347.1122    1369.6705    1360.3719    1452.0664 
  140000     1355.973   -162.70565   -17304.929   -171585.86    9885.9383    1357.9259    1310.0218    1319.5645    1333.1681    1401.7951    1394.5027    1438.9305 
  141000    1363.9646   -161.40128   -17308.599   -171625.66    9944.2019    1364.7543     1345.742    1367.1756    1377.4061    1412.5295    1281.4995    1388.5498 
  142000     1363.372   -163.39308   -17310.227   -171619.89     9939.882    1363.5569    1359.5664    1362.9197    1398.8774    1374.0112    1284.9646    1352.5619 
  143000    1361.3136   -164.36874       -17310   -171580.48    9924.8742    1361.8943    1348.0706    1357.8352    1283.0728    1387.0369    1342.9365    1388.5849 
  144000    1355.5738   -161.65549   -17301.946   -171571.23    9883.0276    1357.5326    1309.4799    1350.5326    1292.2304    1217.1894    1372.9344    1375.7776 
  145000    1364.1441   -160.22072   -17310.022   -171669.59     9945.511    1365.8972    1322.9585    1339.3944    1305.3364    1236.0834    1417.5172    1320.2155 
  146000    1357.8117   -161.40141   -17314.021   -171603.74    9899.3433    1359.4074    1320.3747    1346.8961    1353.9638    1268.4612     1350.406    1351.8129 
  147000    1361.3723    -161.1985   -17314.308   -171649.46    9925.3026    1362.8708    1326.2546    1358.4581    1383.8433    1353.9523    1311.2034    1264.3699 
  148000    1357.7006    -163.4588   -17310.129   -171613.63    9898.5336    1359.0053    1327.2017    1349.1056    1353.9485    1308.9006    1431.8105    1393.7017 
  149000    1358.5683   -161.65754   -17304.123   -171609.11    9904.8597    1360.3887    1315.7768    1336.4566    1388.9703    1352.1475    1343.9313    1408.8379 
  150000    1363.5399     -161.909   -17291.278    -171613.4    9941.1061    1365.3429    1321.1664    1333.1611    1422.0505     1362.817     1417.097    1379.5291 
  151000    1367.0753   -162.13207   -17306.071   -171631.69    9966.8809    1367.1348    1366.2587    1384.5866     1391.131    1346.2453    1405.2461    1370.3259 
  152000    1369.5003   -162.90218    -17298.98   -171621.46    9984.5609    1371.0238    1333.7887    1331.2584    1385.6051    1431.3994    1408.1296    1421.2118 
  153000    1364.6841   -162.63269   -17310.451   -171613.24    9949.4477     1364.784    1362.9038    1366.6799    1326.3927    1378.4428    1321.3114    1417.1901 
  154000      1361.98   -162.65863   -17302.017   -171596.24    9929.7333    1362.4551    1351.2558    1364.7605    1397.6774    1304.8798    1398.4127    1353.2412 
  155000    1364.8187   -160.83452   -17295.786   -171603.13    9950.4288    1365.3639    1352.4236    1327.4887    1262.6394    1320.9806    1402.0466    1370.8996 
  156000    1363.1908    -161.2702   -17294.556   -171585.87    9938.5605    1363.9418    1345.8895    1327.8139    1358.5397     1317.251    1358.4439    1322.3469 
  157000    1364.1894   -162.86544   -17287.363   -171590.74    9945.8414    1365.5947    1331.2958    1350.8322    1349.6093    1302.9461    1261.3933    1341.4562 
  158000    1365.5795    -161.8704   -17297.841   -171591.63    9955.9755    1365.1347    1376.7822    1382.1855     1348.042    1296.7747    1313.5575    1377.4195 
  159000    1359.7944   -164.84849   -17290.592   -171515.56    9913.7988    1360.2176    1350.3061    1369.1774    1283.8327    1345.2078    1318.1216    1301.8527 
  160000    1372.2209   -162.77898   -17293.194   -171592.81    10004.396    1371.8858    1380.8115     1374.249    1318.6538    1470.5016    1373.1031    1379.7344 
  161000    1371.7607   -163.90755   -17293.132   -171596.54    10001.041    1371.8986    1369.0765    1377.5264    1398.8374    1377.0424    1333.1888    1378.4198 
  162000    1370.2024   -160.50939   -17286.417   -171616.84    9989.6797    1370.9271    1353.5321    1371.4944    1402.8953    1423.3494    1289.9954    1489.4827 
  163000    1364.7407   -161.77508   -17293.614   -171588.28    9949.8607    1364.2724    1376.5046    1396.1036    1385.4192    1344.5965    1315.6694    1357.9537 
  164000     1358.154    -161.1956   -17282.424   -171508.28    9901.8393    1358.3431    1354.2457    1387.5857    1280.3953    1294.1584    1416.6427    1201.5875 
  165000    1369.1201   -161.20482   -17288.419   -171551.96    9981.7889    1368.6167    1381.7208    1396.4063    1337.4794    1250.8049     1370.333    1318.6816 
  166000    1369.0178   -160.44983   -17293.116    -171579.1    9981.0435    1367.9598    1394.8396    1387.8652    1445.4062     1438.862    1305.0921    1430.7718 
  167000    1367.7799   -162.82107   -17297.508   -171588.73     9972.018    1365.2283    1429.2013    1404.2011    1429.8951    1278.6818    1359.3557    1309.5932 
  168000    1360.8374   -160.67886   -17291.256   -171549.69     9921.403    1359.7296    1387.8427    1381.7138    1364.6462    1347.0646    1367.1182    1422.0507 
  169000    1362.7535   -163.00562   -17284.911   -171526.42    9935.3722    1362.5525    1368.1428    1381.5397    1342.4523    1419.3757    1454.1397     1394.319 
  170000     1361.062    -162.7183   -17287.822   -171524.82    9923.0403     1360.426    1376.8222    1366.8481    1322.8081    1371.2612    1423.0881     1352.922 
  171000    1367.6235   -163.03062   -17297.369   -171565.41    9970.8778    1366.7818    1388.2876    1351.5893    1464.7351    1339.2159    1385.8151    1429.9814 
  172000    1369.0327   -162.98707   -17289.972   -171596.47    9981.1519    1369.7871    1351.6542     1335.033    1420.3674    1396.9844    1384.0209    1317.6744 
  173000    1366.3233   -163.57381   -17294.338   -171522.01    9961.3985    1366.4402    1364.1375    1371.4487    1408.8375    1434.4827    1374.7917    1340.0351 
  174000    1371.1173   -163.47168   -17301.082   -171521.38    9996.3503    1371.0942    1372.2719    1386.4206    1489.0711    1378.8792    1343.3184    1331.6777 
  175000    1370.5405   -160.99784   -17299.598   -171516.13    9992.1451    1369.7017    1391.1382    1376.7493    1426.4578    1316.5554    1399.6927     1490.902 
  176000    1364.4573   -162.65081   -17292.564   -171494.68    9947.7942    1364.6441    1360.6053    1370.7171    1398.1373    1388.1384    1283.3267    1283.2373 
  177000     1367.026   -162.53081   -17296.633   -171507.39    9966.5215    1366.8551    1371.7001    1356.8327     1427.969    1304.9355    1373.6014    1353.8869 
  178000    1365.7149   -163.69745    -17295.87   -171526.32    9956.9626    1366.5772    1345.7616    1356.7163    1347.9212    1364.3624    1424.7537     1411.731 
  179000    1361.5728   -162.78688   -17301.477   -171498.73    9926.7646    1361.3622    1367.1941    1377.3914    1400.8101    1414.8177     1418.508    1435.6736 
  180000    1363.5925    -161.5842    -17301.13   -171474.54    9941.4894    1361.8479    1405.7779    1395.7685     1422.499    1326.7284     1412.236     1367.771 
  181000    1365.1766   -161.69924   -17291.066   -171522.11    9953.0384    1364.3925    1384.4679    1393.6237    1421.7042     1408.392    1467.6309     1457.174 
  182000    1361.9253   -162.36903   -17280.856   -171527.31    9929.3344    1361.3741    1375.6636    1361.3279    1407.9733    1363.8536    1337.2598    1410.6539 
  183000    1358.3774   -163.24896   -17289.615    -171503.9    9903.4676    1357.3168    1384.2559    1379.5318    1369.9798    1449.1393    1388.6243    1412.1318 
  184000    1366.9943   -165.39179   -17290.384   -171593.01    9966.2908    1365.8825    1394.0967    1412.6161    1350.6434    1398.8505    1412.0067    1319.4711 
  185000    1364.9635   -162.57114   -17291.813   -171561.96    9951.4848    1364.5485    1375.4564    1398.8199    1443.8976    1256.6268    1353.9535    1355.0328 
  186000    1362.0773   -162.11055   -17295.579   -171533.48    9930.4426     1361.464    1377.2963    1390.9139    1327.5201    1232.6336    1322.4653    1398.0724 
  187000    1361.0598   -163.58354   -17286.265    -171549.1    9923.0245    1361.2331      1357.53    1362.7938    1311.6563    1406.7586    1280.3777    1338.0112 
  188000    1355.2305   -163.65184    -17291.67   -171547.01    9880.5247     1355.235    1355.7207    1381.5041      1368.68    1408.1323    1268.3143    1295.6184 
  189000     1353.125   -163.77779   -17291.418   -171525.93    9865.1743    1353.6631     1340.894    1337.4248    1397.3435    1350.5375    1373.1941    1340.7528 
  190000    1358.2999   -163.91018   -17304.564   -171505.92    9902.9026    1358.3489    1357.7308    1363.6001    1345.2722    1390.8729    1285.0979    1418.3249 
  191000    1357.9296   -162.23449   -17293.208   -171523.79    9900.2033    1359.0603    1331.5787    1353.0511    1344.6826     1319.796    1396.7551    1299.2964 
  192000     1366.397   -160.87229   -17301.792   -171544.01    9961.9361    1366.5015    1364.5085     1382.821     1321.804    1380.6278    1415.1499    1376.8059 
  193000    1361.6701   -163.38308   -17304.952   -171479.29    9927.4735    1361.2604    1372.0336    1371.4468    1285.8432    1293.4916    1320.6711    1361.9096 
  194000    1359.2622   -163.95101   -17306.364   -171467.14    9909.9182    1358.4661    1378.8361    1367.5036    1427.9113    1394.4027    1241.6478    1412.2915 
  195000    1365.9002   -165.29893   -17308.787   -171522.11    9958.3142    1366.0936    1361.8923    1366.1896    1394.5256      1442.85    1347.2806    1321.0071 
  196000    1361.7989   -160.65791    -17302.12      -171499    9928.4125    1363.2599    1327.5751    1336.9325    1217.7078    1453.3548     1437.511    1372.6145 
  197000    1368.2176   -160.95582   -17305.674   -171549.36    9975.2095    1369.8573    1329.7382     1355.867    1276.9562    1347.6165    1341.6351    1427.6914 
  198000    1353.6205   -163.47945   -17302.645   -171457.46    9868.7866    1353.3665    1360.2694    1346.1841    1343.3796    1380.4714    1383.1741    1295.9932 
  199000    1356.8541   -164.24585    -17301.17    -171503.3    9892.3621    1358.3068    1322.8257    1330.5803    1392.0374    1453.6523    1350.3698     1305.436 
  200000    1356.8307   -163.81232   -17301.068   -171474.59    9892.1911    1357.6781    1337.2303    1348.4324    1248.0981     1461.136    1370.6168    1276.1958 
  200357    1361.0355   -162.20861   -17305.023   -171531.28     9922.847    1361.4842    1350.9405    1356.9548    1386.4453    1471.8392    1384.4771    1291.0702 
Loop time of 17439.7 on 8 procs for 200000 steps with 58614 atoms

Performance: 0.991 ns/day, 24.222 hours/ns, 11.468 timesteps/s
45.3% CPU use with 8 MPI tasks x no OpenMP threads

MPI task timing breakdown:
Section |  min time  |  avg time  |  max time  |%varavg| %total
---------------------------------------------------------------
Pair    | 0.54157    | 9756.3     | 14050      |4281.1 | 55.94
Bond    | 0.16093    | 0.37545    | 0.53101    |  16.8 |  0.00
Neigh   | 0.17323    | 1793.3     | 4290.3     |4115.7 | 10.28
Comm    | 17.818     | 3477.9     | 8539       |6292.0 | 19.94
Output  | 11.786     | 23.595     | 95.972     | 566.7 |  0.14
Modify  | 0.48411    | 94.493     | 225.31     | 960.1 |  0.54
Other   |            | 2294       |            |       | 13.15

Nlocal:    7326.75 ave 17542 max 0 min
Histogram: 4 0 0 0 0 0 2 0 0 2
Nghost:    8918.5 ave 18431 max 0 min
Histogram: 2 0 2 0 0 0 1 1 0 2
Neighs:    393542 ave 1.00369e+06 max 0 min
Histogram: 4 0 0 0 0 2 0 0 0 2
FullNghs:  43746.5 ave 185230 max 0 min
Histogram: 6 0 0 0 0 0 0 0 1 1

Total # of neighbors = 3148333
Ave neighs/atom = 53.713
Ave special neighs/atom = 0
Neighbor list builds = 9990
Dangerous builds = 8

#unfix 3

#fix 3 top langevin 1350.0 1350.0 20.0 889483
#run 50000000

unfix 3
run 50000000
Neighbor list info ...
  update every 10 steps, delay 10 steps, check yes
  max neighbors/atom: 500000, page size: 5000000
  master list distance cutoff = 11.2
  ghost atom cutoff = 11.2
  binsize = 5.6, bins = 6 68 36
  5 neighbor lists, perpetual/occasional/extra = 5 0 0
  (1) pair eam/fs, perpetual, skip from (4)
      attributes: half, newton on
      pair build: skip
      stencil: none
      bin: none
  (2) pair airebo, perpetual, skip from (5)
      attributes: full, newton on, ghost
      pair build: skip/ghost
      stencil: none
      bin: none
  (3) pair lj/cut, perpetual, skip from (4)
      attributes: half, newton on
      pair build: skip
      stencil: none
      bin: none
  (4) neighbor class addition, perpetual
      attributes: half, newton on
      pair build: half/bin/newton
      stencil: half/bin/3d/newton
      bin: standard
  (5) neighbor class addition, perpetual
      attributes: full, newton on, ghost
      pair build: full/bin/ghost
      stencil: full/ghost/bin/3d
      bin: standard
Per MPI rank memory allocation (min/avg/max) = 125 | 132.1 | 143.6 Mbytes
Step c_Tabove c_1 c_2 c_3 KinEng c_Tcu c_Tgr c_T1 c_T2 c_T3 c_T4 c_T5 
  200357    1361.0355   -162.20861   -17305.023   -171531.28     9922.847    1361.4842    1350.9405    1356.9548    1386.4453    1471.8392    1384.4771    1291.0702 
  201000    1364.3137   -161.83455   -17306.794   -171553.95    9946.7476    1364.3422    1364.2364    1356.6412    1361.6126    1403.7501    1347.5777    1281.4948 
  202000    1357.3298   -163.81979   -17291.472   -171516.14    9895.8298    1359.2631    1311.8452    1367.0446    1413.6948    1359.0378    1312.0537    1384.5523 
  203000    1359.7082   -161.88882   -17301.644   -171525.33    9913.1703    1360.1158    1350.5917     1371.896     1306.602     1476.493    1366.3417    1237.1491 
  204000    1360.8149   -163.02669   -17298.807   -171535.18    9921.2388    1361.3822    1347.8915    1358.0915    1394.4702    1355.4146     1350.668    1366.7166 
  205000    1360.2048   -165.23842   -17307.054   -171520.43    9916.7909    1359.4454    1378.9057    1366.4525    1394.4067    1478.6324    1276.5443    1380.0441 
  206000    1360.2727   -163.50575   -17301.966   -171527.59     9917.286    1360.1949    1362.7279     1385.856    1404.2952     1395.878    1389.9673    1419.0155 
  207000    1358.2022   -164.75664   -17301.171   -171512.07    9902.1907     1357.721    1370.2716    1359.5616    1413.4492    1428.4833    1258.8174     1393.486 
  208000    1355.1341   -162.46341   -17300.312   -171492.81    9879.8217    1354.2953    1375.7229     1379.892    1419.7302    1448.8601    1267.9806    1352.2777 
  209000    1350.3903    -162.7004   -17300.455   -171457.76    9845.2364    1350.1228    1357.3618    1361.6712     1304.238    1314.8417    1292.6767    1398.5993 
  210000    1356.1485   -162.31955   -17301.522   -171499.14    9887.2173    1355.6992    1367.4536    1342.0332    1409.6465    1349.5357    1426.5276    1412.3381 
  211000    1358.2481   -161.42517   -17301.115   -171515.72    9902.5254    1357.8666    1367.9406    1373.6017    1299.5709    1402.2553    1338.6179    1364.0389 
  212000    1361.2792   -164.19414   -17299.033   -171537.15    9924.6239    1361.1656    1364.5863    1358.2103    1366.3363     1335.089    1349.2641    1343.9435 
  213000     1350.937    -162.4568   -17297.036   -171465.21    9849.2223     1350.675    1357.7763    1358.4164    1266.4615    1294.0397    1387.8986    1333.0887 
  214000    1360.8663   -161.93892   -17305.244   -171530.19    9921.6136    1359.1869    1401.4947    1376.9124     1280.155    1351.3717    1303.7816    1381.2903 
  215000     1356.728   -164.35279   -17287.349   -171515.41    9891.4423    1356.9491    1352.0556    1345.5943    1379.8447    1444.2631    1316.5859    1270.5944 
  216000    1357.4922   -163.62178   -17295.608   -171513.54    9897.0142    1357.1794     1365.546    1349.3366     1333.912     1419.512    1394.3223    1331.1384 
  217000    1359.1545   -161.84441   -17301.192   -171521.85    9909.1333     1358.422    1377.2133    1362.3299     1309.927    1382.2725    1348.4521    1368.3427 
  218000    1358.2332   -162.28313   -17301.575   -171514.07    9902.4167    1357.7731       1369.8    1356.8698     1348.773    1359.0404     1305.247    1318.9016 
  219000    1353.2666   -164.62822   -17296.037   -171481.26    9866.2068     1352.616    1369.3714    1357.2564    1258.4044     1443.238      1305.95      1397.03 
  220000      1354.89   -162.24656   -17301.973   -171489.59    9878.0425    1353.5425    1387.6063    1370.5211    1381.1534    1369.8473    1314.0025    1364.2216 
  221000     1352.178   -159.54145   -17294.865   -171479.43    9858.2702    1351.8663    1360.2032    1367.0416    1369.6739    1378.8939    1329.0635    1353.1905 
  222000    1353.3608   -162.98993   -17293.474    -171486.1    9866.8937    1353.0875     1360.472    1350.4045     1425.991    1377.3421     1317.146     1373.875 
  223000    1350.5182   -164.45051   -17297.353   -171460.11    9846.1688    1349.4179    1377.3389    1364.8026    1284.5956    1371.8229    1404.8243    1390.7515 
  224000    1361.0749   -163.26867   -17308.453   -171527.37    9923.1341    1359.2518    1405.1276     1401.493    1355.6234    1518.4362    1342.2186    1382.3646 
  225000    1354.5436   -161.34213   -17309.895      -171480    9875.5171    1352.6548    1400.1623    1395.4049    1291.9223    1370.7228    1446.0954    1388.2932 
  226000    1346.0399   -162.89965   -17297.716   -171428.58    9813.5193    1345.9501    1348.7726    1329.7531    1238.8801    1334.4225    1302.0717    1305.3763 
  227000    1351.9246   -163.02695   -17306.775   -171462.43    9856.4226    1350.7936    1379.4789    1379.1132    1264.5897    1380.4855     1265.458    1297.0413 
  228000    1347.3894   -162.09217   -17288.486   -171448.34    9823.3577    1348.0572     1332.064    1351.6769    1208.0191    1368.8064    1389.5004     1290.855 
  229000    1350.2299   -163.33906    -17300.08   -171456.39     9844.067    1348.7625     1385.801      1358.28    1327.9461    1385.3537    1221.5703    1250.0298 
  230000    1352.5368   -161.65427   -17291.411    -171483.5    9860.8859    1352.7511    1348.0243    1357.7882    1235.3606    1265.1244     1331.026    1430.6202 
  231000    1354.1533   -163.64125   -17294.875    -171489.9    9872.6709    1353.3662    1373.5099    1342.5035    1329.2062    1399.1631    1315.7169    1423.8105 
  232000    1348.3256   -164.01636   -17300.928   -171440.92    9830.1837    1347.8985    1359.0993    1364.7327    1442.6785    1416.0513    1329.2245    1288.5932 
  233000    1355.0298   -163.80328   -17300.014   -171490.97    9879.0612    1354.9548    1357.4131    1375.7224    1309.3939      1334.14    1365.1637     1370.677 
  234000    1355.9435   -162.14958   -17303.932    -171495.5    9885.7228     1355.081    1377.0985    1380.8556    1309.5316    1397.3103     1238.434    1320.2828 
  235000    1351.5477   -161.31274   -17295.845    -171472.3    9853.6748    1350.7899    1370.2057    1359.3948    1229.7918    1392.2934    1263.2134    1305.2694 
  236000    1350.3521   -163.89406   -17289.387   -171467.34    9844.9581    1351.2848    1328.7151    1339.5053    1433.1284    1320.6846    1344.0694    1369.5764 
  237000    1357.1568   -162.38815   -17301.217   -171506.72    9894.5685    1356.2414    1379.5725    1399.7682    1359.4854    1307.8713    1373.6676    1347.7442 
  238000     1349.586   -162.36497    -17300.61   -171452.09    9839.3723    1348.7314    1370.5497    1337.5249    1349.1334    1351.4283    1378.3788    1355.8368 
  239000    1361.9436   -165.36799   -17298.921   -171540.97    9929.4679    1361.1975    1380.3283    1364.2009    1322.7413    1392.7199    1368.6601     1344.389 
  240000    1349.5004   -163.28774   -17287.923   -171463.15    9838.7488    1350.0506    1336.9803    1344.0956    1389.3556    1337.8845    1355.4201    1449.2888 
  241000    1359.4815   -164.59672   -17305.835   -171516.81    9911.5172    1358.0602    1393.9585    1400.1042    1324.8388    1355.7726    1306.5681    1332.6465 
  242000    1358.6463   -163.92417   -17296.934   -171520.46    9905.4282    1358.2949    1367.6197    1364.9539    1365.4509    1375.9784    1320.2603    1412.9677 
  243000    1353.6453   -161.56521   -17290.107   -171492.98    9868.9678    1353.9436    1347.1306    1353.7131    1330.6486    1369.4998    1287.5316    1384.7378 
  244000    1345.6738   -160.44975   -17286.973   -171438.91    9810.8499    1346.0792    1336.6033    1327.3133    1344.7774    1329.5693    1301.0421    1295.8191 
  245000    1349.9205   -159.48241   -17289.802   -171468.21    9841.8116    1349.8197    1352.9177    1340.4961    1319.8809    1305.9412    1330.7785    1415.7409 
  246000    1354.0802   -162.13199   -17290.964   -171494.82    9872.1384    1354.4633    1345.5448    1351.8628    1291.5609    1315.0441    1347.6459    1287.9152 
  247000    1360.1356   -163.65103   -17303.959   -171524.79    9916.2858    1358.8119    1392.2844    1399.1111    1337.6465    1380.7841    1342.2344    1273.0484 
  248000    1353.8509    -164.4782   -17296.625   -171485.28    9870.4669    1352.8491    1378.3258    1382.2314    1321.9088    1317.6197     1293.717    1301.5043 
  249000    1356.6272     -163.919   -17293.575   -171509.12    9890.7073    1355.8387    1376.0182    1378.3405    1352.1458    1332.9823    1257.7007    1395.1918 
  250000    1353.0521    -162.9685   -17294.382   -171483.22     9864.643    1352.4404    1368.2303    1381.2038    1341.7691    1325.0886    1359.9069    1272.4922 
  251000    1358.3551    -161.6593   -17298.529   -171518.81    9903.3051     1357.298    1384.1506    1381.6484    1362.2886    1379.4833     1335.475    1366.5868 
  252000    1355.9846    -162.0928   -17298.076   -171501.67    9886.0229    1355.0631    1378.5464    1362.4759    1327.1275     1341.667    1373.0547    1328.4466 
  253000    1354.5839    -161.4075   -17293.757   -171496.48    9875.8104    1354.6468      1353.68    1348.1117    1299.9776    1345.2035    1342.6233    1252.7929 
  254000    1353.9161   -165.49821   -17297.489   -171483.94    9870.9422    1353.4519    1365.5782    1371.3417    1391.4068    1384.5039    1330.6585     1353.129 
  255000    1351.5598   -164.25489    -17295.27    -171470.1    9853.7626    1351.4568    1354.6084    1353.7828    1338.9079    1322.3229    1418.3539    1340.5603 
  256000    1348.9635     -165.724    -17289.78   -171455.16     9834.834    1349.5864    1334.7098    1332.4532    1282.8413    1334.3747    1393.0965    1313.1923 
  257000    1345.5734   -164.04234   -17311.008   -171411.04    9810.1183    1343.6075    1393.0247    1383.6363    1299.0967    1379.3054    1340.8586    1376.7894 
  258000    1349.6433   -160.47382   -17293.425   -171461.52    9839.7903    1350.4518    1330.9669    1334.7593    1364.4702    1337.0453    1416.5507    1315.0092 
  259000    1347.4207   -163.09865   -17306.118   -171430.17     9823.586    1347.0231    1357.4896    1371.9595    1368.8064    1381.7437    1331.3224    1389.0629 
  260000    1355.2719   -163.14284   -17305.469   -171488.09    9880.8268    1354.9467    1363.6211    1349.7646    1324.5197    1294.9677     1372.403    1291.8936 
  261000     1361.869   -162.03642   -17303.009   -171539.65    9928.9238    1362.4283     1349.137    1326.7401    1480.2282    1326.7274    1288.6319     1373.165 
  262000    1353.1339   -164.11252    -17297.18   -171479.75    9865.2391    1353.9804    1333.5533    1324.1665    1380.1126    1347.5111    1381.3883    1331.4071 
  263000    1347.9758   -160.92532   -17299.125   -171443.24     9827.633     1348.847    1327.8028    1298.0093    1409.5827    1311.6415    1343.3501    1407.8581 
  264000    1351.3314   -163.00029   -17297.717   -171467.12    9852.0976    1352.4848    1324.4335    1337.7535     1346.486    1386.8001    1405.9042    1344.0896 
  265000    1357.0222   -163.04878   -17307.952   -171498.44    9893.5873    1357.0476    1357.0138    1374.9626    1466.1566    1319.4773    1348.6872    1318.3272 
  266000    1355.6255   -162.99498   -17299.107   -171497.09    9883.4048    1356.4875    1335.6759    1352.2348    1353.3429     1389.799    1369.3271    1424.2671 
  267000    1353.4229    -162.9488   -17300.885   -171479.36    9867.3461    1354.0014    1340.2286    1329.8357    1287.7689     1423.717    1408.3814    1358.9384 
  268000    1355.2676   -161.21459   -17305.014   -171490.34    9880.7952    1355.0957     1359.962    1357.0606    1347.1935    1365.5096    1386.9081    1337.8832 
  269000    1350.8067   -163.37132   -17306.897   -171454.07    9848.2723    1349.6547     1378.861    1348.5072    1399.4446    1395.3487    1349.8317    1349.3506 
  270000    1350.0874   -160.87865   -17294.098   -171463.71    9843.0281     1351.885    1307.8335     1327.673    1338.1506    1393.1552    1285.5866    1339.9557 
  271000    1343.5615   -163.72295   -17303.828   -171403.76      9795.45    1343.4014    1347.9691    1333.6004    1396.3959    1397.1176    1341.8774    1385.0105 
  272000    1355.1041   -163.14401   -17306.435   -171485.87    9879.6033    1354.5641    1368.5733    1363.8802    1331.0572     1338.692    1390.2634    1433.5264 
  273000    1356.3848   -162.21855   -17308.709   -171493.93    9888.9404    1355.8379    1370.0169    1367.1694    1282.7529    1292.1542     1357.125    1274.5724 
  274000    1350.2879   -162.28277   -17296.576   -171461.36    9844.4901     1351.502    1321.9441    1346.3313    1403.0837    1366.2704    1332.8434    1395.4731 
  275000    1353.1265   -162.96065   -17306.943    -171471.2    9865.1851    1352.1496    1377.0061    1362.8735    1428.1925    1392.7826    1265.9792    1415.1013 
  276000     1351.564   -160.19288   -17301.081   -171468.26    9853.7933    1352.1994    1337.0126    1350.3256    1423.7635    1328.7905    1421.3994    1336.7997 
  277000    1353.2816   -162.89004   -17297.184   -171481.99    9866.3158    1353.6388    1345.3629    1357.3698    1341.7094    1364.9663     1363.209    1415.3952 
  278000    1343.4964   -163.68278   -17297.362   -171409.78    9794.9757     1343.571    1342.3109    1352.4416    1385.3097    1333.3174    1321.3967    1359.4633 
  279000    1343.2405   -162.03924   -17298.975   -171407.86    9793.1101    1342.8717    1352.6247    1353.6651    1278.9327     1347.165    1322.7439    1394.5242 
  280000    1348.7737   -164.04815   -17305.323   -171439.93    9833.4501    1348.5251    1355.2916    1350.2553    1383.8188    1393.7032    1319.6728    1389.2767 
  281000     1349.663   -163.45508   -17311.844    -171440.6    9839.9341    1348.3578    1381.3668    1361.4455    1384.9907    1329.2792    1284.0976    1387.2321 
  282000    1347.6675   -164.44314   -17300.607   -171436.24    9825.3854    1347.9083    1342.5218    1319.3802    1320.7935    1348.2232    1396.8533     1324.646 
  283000    1347.8878   -163.28931    -17298.26    -171441.2    9826.9915    1347.8748    1348.7918    1357.4989    1349.7487    1350.6946    1320.6325    1321.8121 
  284000    1347.9089   -161.63022   -17297.957   -171443.24    9827.1455    1347.8341    1350.2849    1372.4575    1380.6583    1408.1844    1346.9997    1340.4978 
  285000    1355.6666   -162.13695    -17305.08    -171492.4    9883.7045    1354.6051    1381.5673    1350.4501    1374.8647    1381.9266    1445.2521    1413.6244 
  286000    1348.1944   -163.08478   -17296.344   -171445.57    9829.2269    1347.6104    1362.7079    1368.2206     1388.884    1348.1912    1469.0605     1336.641 
  287000    1351.4434    -165.9416   -17305.124   -171457.87    9852.9141    1350.0173    1386.0311    1381.2823    1312.3159    1307.7943    1343.0238    1324.5025 
  288000    1348.7422   -163.48517   -17302.549   -171443.07    9833.2207    1347.2393    1385.1579    1373.4579    1474.9843    1404.2373    1328.6675    1336.1266 
  289000    1348.6076   -163.30262   -17303.772   -171441.01    9832.2391    1347.2797    1380.8513    1368.1029    1402.3292    1274.7972    1419.3307     1385.297 
  290000    1354.8959   -163.10824   -17303.988   -171487.02    9878.0849    1353.9107    1378.9742    1346.4414    1256.4977    1416.0037    1363.7832    1363.6462 
  291000    1349.4404   -163.77653   -17293.443   -171456.96    9838.3111    1349.5326     1347.837    1352.2913    1273.0803    1359.2452    1397.1978    1280.9161 
  292000    1352.1477   -164.51521   -17305.568   -171463.97    9858.0489    1350.5175    1391.5992    1371.5905    1438.4754    1442.1883    1376.9185    1396.9765 
  293000    1348.6944   -162.13822   -17297.905   -171448.65    9832.8722     1348.357    1357.3308    1359.5728    1334.6142    1373.5013    1375.4442    1358.1776 
  294000    1349.9489   -164.10795   -17297.105   -171456.64    9842.0185    1350.2826    1342.5898    1336.1964    1476.1345    1448.4336    1453.7574    1364.3517 
  295000    1352.5639    -163.1706   -17310.278    -171463.6    9861.0838    1351.4999    1378.5216    1378.0353     1375.316    1400.4715    1465.2386    1360.8596 
  296000    1349.2939   -162.04312   -17301.114   -171449.93    9837.2428    1349.3947    1347.4845    1332.1942    1362.6476    1438.2055    1388.5946    1392.2164 
  297000    1343.5981   -162.34313   -17304.533   -171404.88    9795.7171    1342.4128     1372.444     1374.439    1419.0874    1357.8959    1360.3593     1303.921 
  298000    1341.9905   -163.05552   -17302.769   -171394.07    9783.9962    1341.1182    1363.3719    1392.0555    1391.6554    1375.0519     1396.135    1364.8653 
  299000    1348.6103   -160.25794   -17299.843   -171447.92    9832.2594    1348.4771    1352.3802    1355.4603    1462.1334    1306.8567    1310.4383    1294.6868 
  300000    1343.0796   -162.95527   -17295.451    -171409.2    9791.9368    1343.4098    1335.8002    1330.1799    1397.1109    1362.8207    1404.5552     1370.095 
  301000    1344.6039   -163.89701    -17302.94   -171412.08      9803.05    1344.7342      1342.09    1364.2275    1310.7816    1319.6722    1321.1158    1352.5202 
  302000    1350.6507   -164.30085   -17302.479    -171456.2     9847.135    1350.5511    1353.6186    1334.2263    1351.6397    1349.1061    1385.1239    1352.2748 
  303000    1346.8381   -164.13542   -17319.182   -171411.93    9819.3389    1344.6898    1398.6376    1350.5941    1313.4344    1311.3096    1365.9617    1346.7655 
  304000    1344.7473   -165.76126   -17299.158   -171414.92    9804.0952    1345.4853    1327.7493    1345.1037    1396.2392    1314.7499    1297.4175    1385.6323 
  305000    1350.2105   -164.06327   -17312.295   -171443.39    9843.9256    1349.9121    1357.9183    1350.4766    1341.0681    1371.7661    1382.2812    1241.9335 
  306000    1346.8906   -165.32979   -17303.916   -171426.35    9819.7217    1347.3573    1336.3615    1362.8271    1295.7028     1398.913     1313.463     1313.666 
  307000    1354.9823   -162.52182   -17295.383   -171496.32    9878.7149    1356.6865    1314.9569    1334.3919    1292.7031    1379.7148    1379.9277    1271.6015 
  308000    1346.4234   -163.35205   -17309.678    -171419.1    9816.3152    1345.6222    1366.1134    1354.2607    1291.7146    1280.5277     1375.734    1323.5533 
  309000    1353.0171   -162.24931   -17301.391   -171476.44    9864.3877    1353.2979    1346.9207     1361.543    1380.3082    1361.7122    1342.4228    1320.7011 
  310000    1347.8859   -162.04711   -17294.415      -171446    9826.9781    1348.9625    1322.8183    1346.4875      1356.99    1335.3725    1391.9071    1244.5476 
  311000    1342.8626   -162.50477   -17296.619    -171406.7    9790.3543    1343.1663    1336.2131    1351.6632    1430.7567     1333.924    1339.7217      1346.54 
  312000    1348.0903   -161.92017   -17306.472   -171435.71    9828.4682    1347.1557    1370.9622    1349.0438    1260.2191    1300.5388    1357.1853     1248.196 
  313000    1345.9059   -164.33394   -17295.338   -171428.33    9812.5419    1347.1013    1318.0036    1328.9755    1370.6502    1326.4056    1361.3673    1427.7761 
  314000    1348.6554   -162.40583   -17303.104   -171442.73    9832.5882    1348.5636    1351.4392    1328.7784    1340.9422    1343.8933     1413.452    1288.3166 
  315000    1338.6771   -163.77461   -17300.558   -171371.13    9759.8398    1338.6209    1340.6068    1321.9588    1321.4988    1306.2172    1312.7819    1404.1805 
  316000    1351.5051   -163.90802   -17309.346   -171455.72     9853.364    1351.1906    1359.5952    1352.5263    1338.7178    1311.6272    1395.1514    1342.0351 
  317000    1355.4667    -159.3743   -17303.065    -171495.3    9882.2465    1355.6033     1352.806    1363.2632    1460.5815    1438.7687    1352.3037    1320.4468 
  318000    1351.7712   -162.48564   -17301.747   -171466.77    9855.3041    1351.3683    1361.9704    1345.4188    1334.3691    1363.2369    1357.0842    1360.9362 
  319000    1354.1391   -163.89687   -17304.065   -171480.21    9872.5678    1353.6647    1366.0445    1348.5734    1277.1772    1384.3898    1329.4252    1301.5733 
  320000     1351.714   -163.85207   -17298.693   -171467.99    9854.8873    1351.7619    1351.1691     1350.172    1268.7116    1343.5407    1369.1458    1330.1465 
  321000    1343.7318   -162.79319    -17300.52   -171408.93    9796.6918    1343.4011    1352.2063    1345.6579    1318.3662    1325.8343    1419.4015      1316.76 
  322000    1350.5836   -162.87489   -17304.694   -171454.72    9846.6454    1349.6316    1373.8687    1387.4288    1320.4136    1279.2886    1280.3443    1270.3339 
  323000    1348.1012   -162.18853    -17300.94   -171441.08    9828.5474    1347.8018    1355.8303    1364.5854    1364.5136    1362.4851    1235.6997    1340.0559 
  324000    1350.7637   -161.28766   -17304.358   -171457.87    9847.9586    1350.6492    1354.0879    1357.6529    1379.5193    1358.4768    1311.4156    1401.5757 
  325000    1349.3362   -160.30957   -17301.834    -171450.9    9837.5515    1350.3047    1326.8449    1354.6794    1287.9806    1254.2907    1327.3044    1289.6345 
  326000    1350.3087   -162.99347   -17298.407   -171458.71    9844.6415    1351.6834    1318.1356    1347.0499    1319.0726    1342.4237    1369.4588    1294.0926 
  327000    1345.3617   -158.54766   -17297.321   -171428.18    9808.5744    1346.0805    1328.8197    1348.7875    1329.2706    1348.5177    1328.2817    1435.4346 
  328000    1349.2547   -160.52379   -17299.303    -171452.7    9836.9574     1350.457    1321.1905    1345.6385    1280.6266    1237.6401    1366.9202    1370.1691 
  329000    1347.9097   -162.83367   -17302.399   -171437.62     9827.151    1347.8473    1349.9904    1369.9075    1325.5856    1239.0191    1378.7768    1211.1935 
  330000    1349.4491   -162.06458   -17295.996   -171455.81    9838.3742     1349.967    1337.6967    1344.4032    1305.7873    1298.2446    1341.1322     1384.495 
  331000     1351.078   -163.11252   -17303.373   -171459.43      9850.25    1351.1817    1349.2014    1358.9644    1326.4529    1284.5634    1386.5076    1356.0306 
  332000    1346.1716   -162.91462   -17298.258   -171428.97    9814.4796    1346.6169    1336.1516     1346.053    1392.5526    1319.8983    1344.4597    1341.7537 
  333000    1348.3443   -163.43411   -17302.353   -171440.13    9830.3198    1348.6608    1341.3942    1358.4963    1280.7716    1312.1468    1334.4756    1376.4806 
  334000    1347.0985   -160.88601   -17297.098   -171438.68    9821.2371    1348.6254    1311.2964    1350.2901    1349.9855    1314.4422    1369.9491    1373.6865 
  335000    1348.8671   -162.83057   -17302.792   -171444.02    9834.1316    1349.0844    1344.2832    1338.2523    1320.6075    1361.2024    1314.6903    1407.2265 
  336000    1350.1352   -160.66031   -17308.148    -171450.2    9843.3765    1349.5621    1364.3902    1348.9452    1296.2386    1319.3144    1324.4494    1465.8184 
  337000    1357.2877   -162.76973   -17307.914   -171500.43    9895.5233    1356.9347    1366.2989    1378.1837    1403.9281    1308.9031    1368.4642    1446.4627 
  338000    1352.4594   -161.74842   -17300.255   -171473.91    9860.3218    1353.2199     1334.928    1360.6531    1378.1733    1379.4601    1346.9566    1437.5824 
  339000    1351.8868    -160.0057   -17305.008   -171466.74    9856.1473    1351.5701    1360.0329    1347.0766    1403.6381    1339.0503    1341.9068    1412.0994 
  340000    1345.8607   -162.50338   -17294.073   -171431.11    9812.2127    1347.1566    1315.5643    1327.8542    1249.0484    1356.5955    1358.6329    1421.1046 
  341000    1348.7025   -160.57944   -17296.934   -171450.85    9832.9311    1349.2258    1336.8234     1341.269    1226.6549    1262.0758    1466.3082    1398.1016 
  342000    1348.0711   -162.79593   -17303.723   -171437.34    9828.3282    1348.1546     1346.675    1363.7483     1429.814    1253.3942    1359.5593     1363.685 
  343000    1352.0379   -161.79016   -17314.857    -171456.3    9857.2486    1350.6565    1385.5604    1343.8669     1419.593    1307.8117    1268.5589    1337.4312 
  344000    1351.9472   -163.67477   -17301.809   -171466.74    9856.5875    1352.5141    1339.0304    1353.0542     1383.334    1365.5395    1364.4643    1327.9296 
  345000    1353.4034   -162.14443   -17300.146   -171480.47    9867.2038    1354.5213    1327.3521    1356.2443    1283.9504    1398.2589    1341.6328    1374.7068 
  346000    1352.5376   -163.34198    -17300.42   -171472.67     9860.892    1352.7266    1348.6285    1370.3582    1430.3366    1338.2369     1356.903     1359.175 
  347000    1356.5434   -162.70652   -17301.055   -171501.82    9890.0965    1357.0144    1345.9136    1381.3364    1336.3096    1351.0637    1419.1115    1362.4697 
  348000    1355.0069   -164.84844   -17315.594   -171474.17    9878.8945    1353.7263    1386.1272    1387.2642    1359.1475     1365.537    1339.7848    1397.6372 
  349000    1353.9832   -164.32712    -17305.07    -171477.6    9871.4315    1353.4939    1366.2426    1380.0853    1416.2723    1380.7457    1392.0453    1387.8122 
  350000    1352.6394   -162.29864   -17299.283   -171475.57    9861.6343    1352.7997    1349.4147    1363.9068    1338.9875    1348.7061    1366.8004    1401.0117 
  351000    1349.4211   -163.47972   -17294.606   -171455.59    9838.1706    1350.9253    1314.1621    1346.8451    1331.9066     1361.992    1402.4546     1387.813 
  352000     1351.963     -161.731   -17304.821    -171465.7    9856.7024    1352.2162     1346.522     1362.972    1276.0594    1317.6878     1397.797    1426.9122 
  353000    1343.4446   -162.47134   -17294.379   -171413.11    9794.5975    1344.9132     1309.029    1342.4966    1352.0845    1315.8361    1343.8482    1364.2542 
  354000    1351.6192   -162.24018   -17300.596   -171466.83    9854.1959    1352.3878    1333.8946    1366.3049    1323.1974    1342.0645    1424.5468    1256.1705 
  355000     1350.049   -162.25414   -17300.271   -171455.73    9842.7485    1350.0418    1350.8149    1360.4197    1429.2811    1327.5388    1448.1074    1315.9819 
  356000    1344.7386   -162.72544   -17294.499    -171422.3    9804.0316     1345.122     1336.191    1361.8385    1307.8512    1277.5554    1383.5151    1239.8236 
  357000    1354.5107   -163.16131   -17304.029   -171483.56    9875.2767    1353.9165    1369.2706    1345.6659    1416.8779    1333.2232    1344.0144    1328.0094 
  358000    1354.7516   -164.24389   -17299.431   -171488.91    9877.0334    1354.9594    1350.3966    1363.2888    1398.3371    1402.9909     1309.899    1355.7058 
  359000    1354.7343   -164.01407   -17293.883   -171494.62    9876.9069    1355.2294    1343.5292    1375.0207    1399.3411    1272.6153     1422.269    1355.2483 
  360000    1346.7691   -162.97641   -17295.126    -171436.2    9818.8357    1346.7441    1347.9593    1342.5401    1345.8368    1304.2564    1431.2364    1325.7969 
  361000    1356.1997   -162.87016    -17289.82   -171510.14     9887.591    1357.4438     1327.143    1340.4184    1348.8398    1392.8173    1417.1335    1255.7443 
  362000    1353.3085   -163.01934   -17303.307   -171475.44     9866.512    1353.4958    1349.4401    1340.9461    1399.0309    1321.7948    1300.1589    1338.1062 
  363000    1347.6301   -161.34937   -17303.557   -171435.67    9825.1128    1347.7929    1344.3425    1343.8537    1463.0525    1332.3919    1467.8692    1267.4861 
  364000    1348.6877   -163.61014   -17311.827   -171432.99    9832.8235    1347.6308    1374.4744    1381.9054    1413.8341    1362.8626    1389.5168    1349.4489 
  365000    1351.9768   -162.10402   -17298.813   -171471.28    9856.8033    1352.7553    1334.0175    1362.0618    1406.6298    1304.4376    1377.6917     1338.432 
  366000    1346.4971   -160.98706   -17301.309   -171430.05    9816.8526    1347.5504    1321.9831    1335.4636    1334.4268    1232.4094     1306.788    1308.5493 
  367000    1344.9429   -165.58463   -17298.705   -171416.62    9805.5211    1345.9874    1320.6371    1330.4563    1401.8792    1301.6455    1296.7163    1313.7198 
  368000    1346.0098   -162.37168   -17296.785   -171429.44    9813.2995    1347.8147    1303.5796    1352.0443    1300.7488    1309.8311    1367.7286    1400.0493 
  369000    1351.9008   -163.46065   -17302.426   -171465.76    9856.2488    1353.5988     1312.022    1318.8453    1343.6439    1326.0934    1356.7393    1359.3121 
  370000    1354.9868   -163.29268   -17308.522   -171482.43    9878.7479    1355.4322    1344.9661    1352.2893    1446.4006    1395.0279    1389.2305    1352.2289 
  371000     1348.084    -163.4895    -17303.93   -171436.38    9828.4223    1348.9958     1326.945    1339.7796    1377.1208    1318.2879    1322.8812    1340.5587 
  372000    1354.1374   -164.56237   -17301.602   -171481.88    9872.5556    1355.3406    1326.0544    1331.6992    1311.0581    1255.8411    1280.6772    1304.8442 
  373000    1358.4473   -162.96166   -17300.782   -171515.56    9903.9774    1359.5349    1333.1226    1335.5718    1358.0706    1342.4514    1345.3254    1395.3968 
  374000    1350.5008   -162.75413   -17302.134   -171456.59    9846.0419    1350.4513    1352.2746    1312.5891    1286.8445    1329.3429    1276.6213    1273.5227 
  375000    1351.0366   -163.06118   -17297.551   -171464.74    9849.9488    1351.3317    1344.5988    1341.7606    1316.3274    1382.3441     1344.376    1372.9288 
  376000    1352.3219   -165.16758   -17300.659   -171468.86     9859.319    1352.0544    1359.2929    1372.6333    1399.1603    1302.4965    1364.9001    1355.9427 
  377000    1351.8188   -163.06248   -17300.736   -171467.23    9855.6509    1351.5998    1357.6321     1369.797    1435.4013    1316.2279    1347.2164    1392.5414 
  378000    1354.7624   -160.35357   -17301.203   -171490.82    9877.1122     1355.136    1346.4544    1350.8122    1340.2042    1308.5402    1453.2529    1361.5977 
  379000      1355.45   -164.11226   -17299.824   -171493.62    9882.1249    1355.1521    1363.1481    1352.5996    1320.6967    1337.3471    1319.2576    1403.7761 
  380000    1354.4083     -162.525   -17304.035   -171483.35    9874.5304    1353.8387    1368.5812    1364.6315    1408.0512     1206.185    1400.1468    1364.4981 
  381000    1357.2783   -163.71068   -17306.405   -171500.88    9895.4544    1357.1933     1359.901    1373.3935    1262.6468    1391.8497     1352.329    1323.7794 
  382000     1355.308   -162.84287    -17306.07   -171487.55    9881.0896    1355.7456    1345.4741     1362.555    1336.4782     1450.286    1396.9791    1417.7639 
  383000    1350.6103   -162.39612   -17307.125    -171452.6    9846.8401    1350.5121    1353.5436    1366.1754    1276.6082    1282.6008    1447.4128    1387.7088 
  384000    1353.8789   -161.95455   -17309.875   -171474.16    9870.6704    1353.4666    1364.3017    1355.6876    1399.6953    1372.9387    1432.7804    1365.5798 
  385000    1356.3836   -163.42838   -17306.487   -171494.35    9888.9313    1356.8746    1345.2776      1354.67    1395.2893    1318.6637    1390.2167    1281.3607 
  386000    1352.0707   -162.54777   -17300.458    -171469.7    9857.4875    1353.0429    1329.4922    1352.1375    1351.8226    1351.1345    1250.7344     1271.708 
  387000    1357.3551   -163.34707   -17310.348    -171497.9    9896.0143    1357.0713    1364.7158    1366.7387    1239.8713    1350.2381    1479.6803    1338.8402 
  388000    1351.4975   -165.44616   -17307.571   -171455.72    9853.3086    1351.8311    1344.1419    1358.7567    1349.4065       1407.7    1365.6601    1383.0471 
  389000    1354.9682   -163.06836   -17300.859    -171489.9    9878.6126    1356.4237     1320.873    1357.1466    1403.0485    1258.0233    1367.8021    1328.2319 
  390000    1350.0217   -162.56994   -17306.506   -171448.68    9842.5492    1350.6462    1335.7308    1354.8307    1489.2308    1336.1341     1433.506    1359.6134 
  391000    1355.1201   -162.85521   -17303.804   -171488.37    9879.7202     1355.946     1336.032    1345.6772    1453.0876    1273.7774    1504.4829    1373.0581 
  392000    1356.3504    -162.5707   -17309.881   -171491.58    9888.6898    1357.0432    1340.4355    1338.1257      1411.69    1307.5871    1461.4372    1352.9914 
  393000    1356.6263   -162.93718   -17309.774   -171493.29    9890.7009    1357.1458    1344.8409    1339.0186    1381.0763    1391.9184    1374.7214    1413.5921 
  394000    1353.8459   -162.76751   -17298.171   -171484.63    9870.4299    1355.2325    1321.3914    1363.3527    1336.6291    1342.7636    1433.6394    1379.6435 
  395000     1350.688      -163.34     -17294.4   -171464.84    9847.4072    1352.2125    1314.9456    1336.7185    1329.3894    1351.2206    1306.9902    1420.3645 
  396000    1347.0855   -163.50876   -17305.389   -171427.32    9821.1426    1347.7537    1331.7538    1337.5839    1399.1449    1412.2428    1371.9534    1388.5972 
  397000    1352.0321   -163.15395   -17303.466   -171465.67    9857.2063    1353.1271    1326.5273    1348.9166    1367.0017    1359.3659    1394.6648    1307.5799 
  398000    1357.0676   -163.83568    -17304.71   -171500.71    9893.9187    1358.6193    1320.6798    1329.5694    1272.2823    1380.9145      1329.58    1442.2502 
[...]
 5180000    1342.6674   -164.54353   -17307.618   -171382.97    9788.9317    1341.5997     1368.708    1361.9682    1379.2971     1313.366    1402.5538    1448.7103 
 5181000    1338.6538   -161.47852   -17306.066   -171358.31    9759.6693    1337.8305    1358.8672    1365.8511    1303.0004    1349.1798    1285.5306    1373.1223 
 5182000    1337.4786   -161.85751   -17295.875   -171359.36    9751.1018    1337.4073    1339.7673    1328.3399    1333.4826    1431.9889     1277.623    1254.2345 
 5183000    1341.5658   -166.00635   -17297.179   -171383.82    9780.9002    1341.2329    1350.0916    1333.1305    1329.4878    1332.3734    1316.5725    1376.6707 
 5184000      1345.61   -163.70231   -17296.407   -171416.35    9810.3851    1345.7811    1342.1246    1316.7077    1313.5811    1411.9997    1381.9537     1371.572 
 5185000    1345.3451   -164.51949   -17305.602   -171404.62    9808.4536    1344.5702    1364.4086    1371.1184    1363.5034     1362.813    1319.0883    1369.4644 
 5186000    1338.4186   -162.04355   -17303.455   -171358.56    9757.9549     1337.494    1361.0456      1337.37    1261.7397    1361.8452    1386.8633     1285.822 
 5187000    1337.3239   -162.84653   -17299.632   -171353.65    9749.9737    1336.7925    1350.5787    1345.5453    1402.7652    1367.4695    1308.6904    1265.2339 
 5188000    1335.6617   -162.22473   -17302.145   -171339.58    9737.8551    1334.5066    1363.7809    1339.1012    1277.1313    1243.0789     1357.155    1346.0833 
 5189000    1344.8083   -161.98701   -17303.166   -171405.53    9804.5398    1344.8076     1345.416     1332.539    1343.6442    1320.3579    1325.6593     1388.002 
 5190000     1343.951   -161.87969   -17303.608   -171399.07    9798.2895    1343.3358    1359.2066    1373.2908    1354.8509    1341.4766     1326.442    1266.5882 
 5191000    1347.9833   -164.82666   -17297.252   -171431.74    9827.6882    1348.1709    1344.1055    1361.0889    1378.7092    1297.3082    1301.7674    1335.3331 
 5192000    1351.3832   -162.76618   -17303.196   -171452.73    9852.4756    1351.1452    1357.6516    1351.7325    1281.6099    1342.2594    1334.4872    1340.9397 
 5193000    1336.6692   -163.11145   -17299.953   -171348.28    9745.2006    1336.2815     1346.498    1346.2136    1404.4176    1242.7508     1317.018    1331.0065 
 5194000    1340.1863   -163.43205   -17304.529   -171369.19    9770.8429    1339.2258    1363.6719     1365.833    1363.1537    1289.0609    1353.4019    1397.9468 
 5195000    1345.1222   -163.96977   -17300.768   -171408.36    9806.8283    1344.8842    1351.3864    1317.1822    1352.2919    1447.6926    1341.5389    1364.7273 
 5196000    1354.8285   -163.58497   -17297.492   -171482.82    9877.5936    1354.5424     1362.244     1352.959    1419.1085    1454.1508    1275.1837    1402.1631 
 5197000    1347.9317   -163.01956   -17306.196   -171424.29    9827.3114    1346.7977    1375.5548    1357.2008    1381.8364    1409.5407    1390.4801    1376.3335 
 5198000    1342.1331   -161.05798   -17286.459   -171403.51    9785.0357    1342.9946    1322.1884     1341.524    1372.8002    1348.8863    1390.3119    1288.2283 
 5199000      1347.86   -162.18802   -17295.272   -171435.51    9826.7887    1347.2001     1364.182    1345.5296    1334.2681    1400.0265    1448.3361    1420.7105 
 5200000    1351.2631   -163.68005   -17295.065   -171459.06    9851.6001    1350.8652    1361.3443    1338.0877    1308.0182    1433.8092    1355.5041     1425.778 
 5201000    1347.8394   -160.98158   -17301.606   -171430.27    9826.6385    1346.6429    1376.9521    1350.4056    1460.5978    1359.3506    1370.3379    1303.4877 
 5202000    1346.7315   -163.20176   -17297.866   -171423.77    9818.5616    1345.4799    1377.1573    1375.0127    1360.8265    1339.2341    1327.2296    1335.2207 
 5203000    1343.7263   -164.16991   -17291.449   -171407.16    9796.6514    1343.7689    1343.3011    1348.9745    1330.7565    1373.3828    1367.5068     1458.817 
 5204000    1349.1837   -163.05604   -17302.541   -171437.06    9836.4397     1347.689    1385.4046    1349.5093    1267.9726    1340.4531    1366.1994    1380.3188 
 5205000     1349.154    -164.9874   -17300.848   -171436.52    9836.2227    1348.8018     1358.141    1349.0912    1271.6987    1354.6049    1346.5116    1338.1641 
 5206000    1350.9933   -163.51037    -17306.02   -171446.28    9849.6329    1350.0664    1373.6823    1361.9634    1349.4018    1332.7832    1258.9605    1411.0548 
 5207000    1347.3448   -164.91047   -17305.558   -171418.53    9823.0331    1346.4285      1369.78    1354.2396    1278.9171    1345.5657     1345.392    1227.7919 
 5208000    1356.9127   -164.24045   -17306.023    -171488.6    9892.7888    1356.7523    1361.3328    1375.1578    1271.9859     1417.209    1363.8114    1426.8752 
 5209000     1344.755   -163.82673   -17301.047   -171405.31    9804.1517    1344.8419    1343.2771    1337.8047    1374.4591    1379.5652    1327.8331    1234.2894 
 5210000     1351.509   -162.19945   -17297.027   -171460.09    9853.3928    1351.9493    1341.6102    1330.9919    1216.9338    1457.9474    1336.2862    1380.7741 
 5211000    1347.3295   -163.50402   -17307.345   -171418.24     9822.921     1346.221    1374.3447    1355.1268    1266.9313    1259.5249    1317.4309    1298.9132 
 5212000    1347.0807   -163.90922   -17299.106   -171424.24    9821.1075    1347.4385    1339.1466    1349.3377     1399.298    1420.8793    1464.4305    1384.4832 
 5213000    1345.9417   -163.21385    -17300.61   -171415.01    9812.8035    1345.5094    1356.8389    1365.8852    1329.9385    1393.6327    1385.8335    1425.0349 
 5214000    1341.2229   -163.89845   -17307.984   -171372.66    9778.4001    1340.1215    1368.0651    1339.5002    1315.7621    1401.0724    1324.8322    1393.7781 
 5215000    1345.5037    -161.9338   -17308.093    -171405.6    9809.6102    1344.8527    1361.6132    1353.8146    1326.2911    1329.8127    1337.5567    1249.0096 
 5216000    1346.4747   -161.51107   -17302.351    -171418.8    9816.6892    1346.2018    1353.5736    1341.0117    1383.4424      1381.91    1389.2362     1308.921 
 5217000    1346.1484   -162.68937   -17299.086   -171418.65      9814.31    1345.8093    1354.8229    1364.5477    1272.7597    1357.4261    1390.0416    1358.7136 
 5218000    1350.0425   -164.32543   -17303.734    -171440.8    9842.7007     1349.139    1372.1718    1366.3017    1367.0351    1346.9339    1287.6131    1413.9716 
 5219000    1347.4173   -162.94334   -17303.929   -171422.84    9823.5614    1346.5062    1369.7276    1330.7302    1361.2983    1269.1524    1390.0948    1369.0002 
 5220000    1353.4992    -163.1218   -17293.758   -171477.17    9867.9026    1353.8623    1345.4402    1353.4835    1412.0714     1442.653    1384.8559    1341.0348 
 5221000     1354.464   -163.59474   -17304.952   -171472.57    9874.9366    1353.7247    1372.6827    1357.4087    1387.3565    1338.5649    1328.5983    1376.1854 
 5222000     1350.273    -163.0471   -17291.505   -171455.92    9844.3813    1351.1647    1329.6129    1353.0873    1313.4583    1345.0367    1342.9557    1394.6438 
 5223000    1344.8253   -163.59229   -17296.705   -171410.44    9804.6643    1344.7505    1347.2021    1353.2518    1313.2533     1316.388    1384.5152    1318.6926 
 5224000    1349.0784   -164.07176   -17309.059   -171428.86    9835.6718    1347.3784    1390.1925     1378.007    1383.7428    1337.0354    1364.5372    1297.9727 
 5225000    1345.4319   -162.26341   -17305.892   -171407.18    9809.0865    1344.3579    1371.6244    1362.0747    1441.2506    1358.9227    1439.5576    1338.3555 
 5226000    1346.3622   -164.40016   -17297.968   -171419.52    9815.8688    1346.4055    1345.9232    1345.0805    1339.6328    1412.7659    1407.9889    1301.9486 
 5227000    1343.1474   -164.41214   -17307.869   -171386.31    9792.4311    1341.7141    1377.9038    1370.3985     1373.588    1305.2482    1277.1517    1309.7591 
 5228000    1343.9679   -163.85053   -17305.882   -171394.94    9798.4132    1343.1474    1364.1176    1368.5994    1329.4333    1360.3921    1289.3967    1330.9624 
 5229000    1343.8627   -162.09069   -17306.237   -171395.62    9797.6463    1342.5186    1376.4945    1371.3228     1259.103    1280.8172    1385.6796    1400.8527 
 5230000    1344.0592   -164.47559   -17296.767   -171403.95    9799.0788    1344.1648     1342.135    1341.7325    1405.8411     1379.689    1340.8081    1328.6806 
 5231000    1350.0956   -163.47725   -17300.743   -171445.07    9843.0876    1349.3498    1368.4652    1342.5868    1369.3797    1380.5687    1309.1065    1431.0397 
 5232000    1347.9404   -162.59237   -17302.378   -171428.73    9827.3752    1347.2626    1364.6889    1372.7444    1270.8758    1352.1672     1410.289     1375.565 
 5233000    1350.0721   -161.97538   -17306.328   -171440.89    9842.9165    1348.6926    1383.5475    1376.8511    1361.5111    1309.9239    1357.6156    1289.8106 
 5234000    1354.8316   -164.46117    -17304.87   -171474.58    9877.6165    1353.8842    1378.0091    1361.6013    1391.1136    1381.9716    1252.3182    1380.3785 
 5235000    1347.9397   -161.83651   -17297.106   -171434.53      9827.37    1347.2947     1363.908    1339.1346    1434.0562    1375.9024    1324.5829    1366.6153 
 5236000    1345.5234   -164.07805   -17296.079   -171415.69    9809.7533      1345.05    1357.3984    1370.8028    1413.1736    1323.4972    1467.3403    1332.2892 
 5237000    1346.9069   -163.56669   -17302.267    -171420.2    9819.8401    1346.0038    1369.0269    1354.9511    1373.5572    1366.8859    1363.6534    1339.6842 
 5238000    1342.4982   -162.92692   -17305.384   -171385.66     9787.698    1341.2735    1372.2812    1361.5466    1341.7827    1372.8949    1358.8822    1407.1576 
 5239000    1345.5671   -161.96684   -17303.537    -171410.7    9810.0721    1345.2732    1353.1643    1322.2391    1339.7628    1373.6752    1338.3829    1258.2344 
 5240000    1344.1016    -161.7077   -17302.058   -171401.71    9799.3874    1344.2732    1340.6014    1360.0379    1244.0447    1238.7917    1410.6663    1312.1455 
 5241000    1349.6022   -165.35206   -17301.371   -171438.97     9839.491    1349.6439    1349.2034    1354.2051    1246.2029    1338.0041    1340.9963    1281.9301 
 5242000    1347.4032   -161.19506   -17298.333   -171429.93    9823.4588    1348.0015    1333.7365    1345.7065    1347.7859    1351.6374    1389.8484    1402.6136 
 5243000    1349.9014    -161.6189   -17300.294   -171445.94    9841.6723    1350.5379     1335.325    1360.0591    1379.1435    1337.6073    1379.4475     1344.861 
 5244000    1345.0673   -162.40876   -17302.002   -171408.22    9806.4281    1344.8578    1350.6523    1363.2778    1305.8304    1383.3766    1331.5074    1326.4726 
 5245000    1349.1784   -164.07087   -17297.009   -171441.56     9836.401    1349.4145    1344.1452    1354.1149    1227.3095    1379.6156    1346.3243    1375.7081 
 5246000    1345.6147   -165.04203   -17298.642    -171413.1    9810.4192    1344.8205    1365.1373    1366.8079     1293.302    1367.2898    1300.8727    1339.6911 
 5247000    1351.9076   -163.30634   -17301.759   -171457.44    9856.2983    1351.1627     1370.258    1325.6635    1403.5797    1352.1809    1365.0162    1262.4978 
 5248000    1348.8889   -165.75432   -17294.221   -171440.67    9834.2904    1348.5725    1357.0257    1364.4203    1234.2689    1273.4223    1400.1397    1314.7472 
 5249000    1348.4735   -163.29493   -17293.512   -171440.74    9831.2616     1347.882    1363.1666    1373.8049    1382.4368    1321.4226    1249.7344    1406.6011 
 5250000    1345.7334   -163.00257   -17283.466    -171430.8    9811.2845    1346.3078    1332.6349    1331.8416    1336.5455    1345.8088    1399.9816    1281.4618 
 5251000    1351.8224   -162.43071   -17300.695   -171458.77    9855.6773    1350.0278    1395.1923     1386.117     1370.677     1396.706    1455.9418     1271.538 
 5252000     1342.615   -161.65308   -17299.502   -171393.57    9788.5495    1340.6715    1389.5305    1371.0044    1362.6176    1413.0707     1362.343    1432.2698 
 5253000    1345.6408   -164.04899   -17288.321   -171424.55    9810.6092    1345.5191    1349.1338    1347.9254    1322.4213    1329.8655    1365.2935    1527.6724 
 5254000     1341.654   -160.58941   -17283.695   -171403.33    9781.5433    1341.8413    1337.7813    1353.5053    1401.6775     1350.099    1261.0432    1370.8395 
 5255000    1347.6594   -163.23601   -17296.667   -171431.68    9825.3262    1346.8097    1368.5048    1353.2809    1337.4266    1399.7493    1260.1841    1434.1864 
 5256000    1342.3335   -164.54945   -17295.645   -171392.42    9786.4968    1341.4361    1364.3128    1375.3988    1302.1084    1358.9014    1347.2205    1342.2044 
 5257000    1345.5239   -162.75261   -17292.715    -171420.3    9809.7573    1345.5601    1345.2534    1336.5974    1400.6031    1299.7513    1394.7708    1280.9199 
 5258000    1348.9824   -162.51642   -17299.193   -171439.43     9834.972    1348.2663    1366.6464    1350.6856    1393.4487    1344.6683    1372.8335    1474.1185 
 5259000     1340.868   -163.89458   -17294.226    -171383.8    9775.8128    1340.6952    1345.5768    1355.9401    1303.8055    1365.2383    1369.9881    1317.4679 
 5260000      1346.66   -164.84864   -17297.318   -171422.22    9818.0403     1345.627    1371.8761    1361.8055    1374.2754    1373.2635    1486.7408    1387.5547 
 5261000    1339.2504   -165.35182   -17298.223   -171366.65    9764.0195    1337.9591    1370.6189    1359.8605    1246.5837    1288.6588    1429.3187      1288.97 
 5262000    1347.8345   -162.16953   -17301.099   -171429.62    9826.6033    1347.0421    1367.3163    1368.8749    1428.3331    1376.6096    1398.2782    1355.9372 
 5263000    1347.5413   -162.20648   -17310.147   -171418.51    9824.4656    1345.5009    1396.7708    1348.4874    1371.6977    1279.7721    1297.6911    1249.7043 
 5264000      1339.62   -164.28046   -17297.608   -171371.09    9766.7139    1339.4717    1343.7436    1347.4212     1321.762    1342.1381    1313.0429    1385.3112 
 5265000    1346.8011   -163.67532    -17294.09   -171427.46    9819.0692    1346.8665    1345.8368       1346.1     1345.278    1396.6619    1448.7689    1324.7293 
 5266000    1346.4615   -164.12984   -17301.267   -171417.45    9816.5927     1345.563    1368.4711    1376.0868    1322.7147    1419.9494    1376.3384    1302.0229 
 5267000    1343.0762   -163.93535   -17299.115   -171395.04    9791.9121    1342.8855    1348.2138    1359.0586    1252.7671    1314.7312    1271.0128    1314.6956 
 5268000    1347.6863    -162.6573   -17296.851   -171432.07    9825.5227    1348.0745    1339.0274    1339.4567    1420.8646    1382.0922    1265.7402    1345.1487 
 5269000    1344.9147    -162.2757   -17295.311    -171413.8     9805.316    1345.1882     1338.989     1319.483    1325.6468    1334.2923    1314.8572    1417.2374 
 5270000    1343.3777   -164.23864   -17308.584   -171387.43    9794.1099    1342.1212    1373.9197    1361.5479    1381.2013    1406.6046    1242.9261    1341.0944 
 5271000    1342.5139   -162.35748   -17296.524   -171394.99    9787.8126    1342.4047    1345.7088    1339.0728    1257.1329    1342.7492    1363.4859    1339.1305 
 5272000    1349.8306   -163.98531    -17311.28   -171432.09     9841.156    1348.2292    1388.5958     1344.085    1315.0156    1313.9076    1265.1998    1279.8378 
 5273000    1345.1643   -163.90159   -17302.888    -171406.5    9807.1357    1344.9538    1350.7746    1332.6048    1334.9214    1391.6182     1393.219    1347.2261 
 5274000    1341.4826   -162.82894   -17298.788   -171384.74    9780.2933    1341.9734     1330.374    1344.8756    1216.0879    1348.7047    1290.3335    1375.2535 
 5275000    1342.5602   -162.44534   -17301.896   -171389.91    9788.1502    1342.5784    1342.7184    1342.1439    1305.7777    1351.3768    1313.9211    1405.8509 
 5276000    1350.0644      -162.41   -17308.092   -171438.45    9842.8608    1349.4836    1364.5029    1345.4944    1417.4102    1340.8595     1331.178    1413.2134 
 5277000    1345.1062   -163.46251   -17297.961   -171411.39    9806.7118    1346.2873    1317.5463    1312.4346    1278.9467    1420.6154    1362.2174    1333.7223 
 5278000     1341.422   -163.92052   -17299.643   -171382.42    9779.8517    1342.0202    1327.7538    1343.9208    1373.9419    1303.6859    1289.7185    1329.8979 
 5279000     1347.682   -163.66386   -17310.718   -171417.32     9825.491    1347.7886    1345.7338    1370.8742    1277.0012    1363.8898    1332.3309    1377.4648 
 5280000    1346.2716   -164.29927   -17302.771   -171413.99    9815.2084    1347.4865     1317.905    1328.8753    1303.2951    1356.2505    1373.4409    1355.6927 
 5281000    1348.4794   -162.81903    -17306.31   -171428.14    9831.3048    1349.8896    1315.4611    1336.8971    1370.7333    1320.1809     1506.821    1405.0836 
 5282000    1348.0879   -162.66464   -17299.861   -171431.88    9828.4506    1349.8785    1306.0008    1332.8982     1415.509    1364.1206    1376.4256    1281.0557 
 5283000    1339.9966   -162.58474   -17297.564   -171375.31    9769.4595    1340.9933    1316.8296     1319.863    1376.0863    1330.7117    1331.4487    1299.4642 
 5284000    1344.8986   -165.23633   -17295.061   -171410.81    9805.1984    1346.4901    1307.5564    1348.8338    1309.0105     1317.755    1416.7047    1247.1319 
 5285000    1341.5586   -162.64699   -17301.568   -171382.53    9780.8476    1343.1622    1303.9253    1345.6522    1306.6421     1403.223     1398.151    1343.5079 
 5286000    1348.1579    -162.2584   -17301.209    -171431.4    9828.9612    1349.7744    1310.2216    1361.6617    1389.3695    1341.9474    1432.5637    1285.1464 
 5287000    1346.1971   -162.43013   -17305.023   -171413.23    9814.6653    1346.6218    1336.6658    1362.1604    1451.2849    1351.2011    1408.6699     1305.004 
 5288000    1349.4859   -162.64696   -17295.789   -171446.09    9838.6429    1351.0633    1312.4811    1348.0823    1272.4356    1317.5667    1342.2209     1319.541 
 5289000     1346.273   -162.17738   -17307.414   -171411.63    9815.2189    1346.1724    1349.2637    1365.9618    1344.3496    1376.2468    1256.9068    1327.3107 
 5290000    1341.3982   -160.92034   -17310.136   -171374.68    9779.6784    1341.5504    1338.3612    1351.1936    1409.9762    1324.7175    1338.7064    1408.1768 
 5291000    1348.0977   -163.42017   -17311.366   -171419.94     9828.522    1347.4658    1363.7545    1360.6268    1310.3437    1340.6784    1347.3191    1305.9042 
 5292000    1346.7952   -162.52893   -17304.713   -171417.69     9819.026      1347.37    1333.6875    1344.9309    1383.6842     1354.945    1374.1892    1349.1558 
 5293000    1344.6018   -165.91515   -17304.177   -171399.01    9803.0344    1344.4894    1347.8721    1337.6013    1376.2607    1343.5031    1418.1195    1396.0389 
 5294000    1345.8825    -162.4397   -17304.649    -171411.3    9812.3719    1345.8101    1348.2008    1339.4549    1402.9719    1284.1153    1297.9969    1350.4882 
 5295000    1348.3069   -164.63583   -17313.395   -171418.21    9830.0472     1347.314    1372.5672    1362.4276    1363.6058    1290.1261    1345.2029    1397.0121 
 5296000    1346.0585    -165.2443   -17297.831   -171416.52     9813.655    1347.0175    1323.7943    1345.8604    1351.9415    1392.3669    1353.1566    1368.0425 
 5297000     1348.303   -162.49186   -17292.432   -171440.94    9830.0188     1350.056    1307.1118    1342.8207    1506.3498    1329.9049    1468.1254    1378.1884 
 5298000    1343.3621    -162.0137   -17294.995   -171402.83     9793.996    1344.8559    1308.3469    1334.1952    1325.2861    1366.2005    1314.3219    1386.4444 
 5299000    1344.3679   -162.50098   -17300.638   -171404.15    9801.3295    1345.2825    1323.1602    1346.7267    1335.1718    1352.2212    1323.6194    1347.8329 
 5300